box     948
    8517 atoms
    6014 bonds
    3895 angles
    2328 dihedrals
       5 atom types
       3 bond types
       3 angle types
       1 dihedral types

      0.0000     40.0000 xlo xhi
      0.0000     40.0000 ylo yhi
      0.0000     60.0000 zlo zhi

 Masses

 1  1.007940
 2 15.999400
 3 12.010700
 4 15.999400
 5  1.007940

 Atoms

       1       1       2     -0.8476     31.9680     21.7820     34.9040
       2       1       1      0.4238     31.5240     22.1510     34.1010
       3       1       1      0.4238     31.3920     22.0790     35.6270
       4       2       2     -0.8476     34.3330     16.5760     39.8910
       5       2       1      0.4238     34.3780     16.9240     40.7980
       6       2       1      0.4238     34.8920     15.7880     39.9610
       7       3       2     -0.8476     32.0860     28.0180     20.3100
       8       3       1      0.4238     32.0810     27.0880     20.1960
       9       3       1      0.4238     32.8280     28.2800     19.7810
      10       4       2     -0.8476     34.5050     18.6910     37.4420
      11       4       1      0.4238     35.0820     19.0470     38.1520
      12       4       1      0.4238     33.6090     18.7620     37.8000
      13       5       2     -0.8476     31.0500     20.5440     28.6290
      14       5       1      0.4238     30.4100     19.9900     28.9980
      15       5       1      0.4238     30.4640     20.9450     27.9620
      16       6       2     -0.8476     38.9740     20.6090     23.9860
      17       6       1      0.4238     39.2980     20.5710     24.9320
      18       6       1      0.4238     38.0480     20.9700     24.0750
      19       7       2     -0.8476     28.3020     17.3670     33.5910
      20       7       1      0.4238     28.7830     17.6900     32.8300
      21       7       1      0.4238     28.9080     17.4810     34.3470
      22       8       2     -0.8476     38.1820     20.8560     33.9160
      23       8       1      0.4238     37.8740     21.4530     34.5970
      24       8       1      0.4238     38.3210     19.9640     34.2890
      25       9       2     -0.8476     29.9610     18.3810     20.9430
      26       9       1      0.4238     30.2430     17.4390     20.9810
      27       9       1      0.4238     29.0780     18.2990     20.4830
      28      10       2     -0.8476     38.7260     19.3040     21.4040
      29      10       1      0.4238     39.0610     20.1010     20.9940
      30      10       1      0.4238     38.5480     19.5890     22.3080
      31      11       2     -0.8476     39.2260     17.0650     20.0180
      32      11       1      0.4238     39.4380     16.4690     20.7540
      33      11       1      0.4238     38.9570     17.9120     20.4930
      34      12       2     -0.8476     36.9470     16.0140     38.2780
      35      12       1      0.4238     36.2640     15.3110     38.3260
      36      12       1      0.4238     36.3430     16.7640     38.1530
      37      13       2     -0.8476     37.1920     24.6770     24.3210
      38      13       1      0.4238     36.4190     24.1780     24.4430
      39      13       1      0.4238     37.6420     24.2570     23.5360
      40      14       2     -0.8476     38.2350     24.5760     29.1910
      41      14       1      0.4238     38.0090     23.7980     28.6340
      42      14       1      0.4238     37.7720     24.4660     30.0180
      43      15       2     -0.8476     35.3600     13.7740     38.8300
      44      15       1      0.4238     35.9500     13.3190     39.5280
      45      15       1      0.4238     34.4480     13.4960     39.0350
      46      16       2     -0.8476     37.1230     22.2810     27.8270
      47      16       1      0.4238     36.4830     22.4530     27.1480
      48      16       1      0.4238     36.6890     21.7610     28.5340
      49      17       2     -0.8476     37.3780     23.6670     31.7340
      50      17       1      0.4238     36.5280     23.2610     31.9930
      51      17       1      0.4238     37.8120     23.8940     32.5600
      52      18       2     -0.8476     38.5820     12.3400     21.0530
      53      18       1      0.4238     38.6670     12.6590     22.0160
      54      18       1      0.4238     38.0430     13.0230     20.6670
      55      19       2     -0.8476     32.9180     19.8250     26.7770
      56      19       1      0.4238     33.7050     19.6190     27.3140
      57      19       1      0.4238     32.3020     20.1580     27.4220
      58      20       2     -0.8476     31.7030     16.3870     28.8150
      59      20       1      0.4238     31.4090     16.9720     28.0970
      60      20       1      0.4238     32.1170     15.6730     28.3270
      61      21       2     -0.8476     31.5760     19.1650     38.3250
      62      21       1      0.4238     31.0720     18.6910     38.9640
      63      21       1      0.4238     31.9040     19.9880     38.7530
      64      22       2     -0.8476     31.4190     22.0250     32.1580
      65      22       1      0.4238     31.8980     22.6000     31.5120
      66      22       1      0.4238     31.7400     21.1300     31.9620
      67      23       2     -0.8476     30.6780     17.5060     35.2530
      68      23       1      0.4238     30.4570     17.8610     36.0990
      69      23       1      0.4238     31.6010     17.7320     35.1260
      70      24       2     -0.8476     32.3170     15.6050     38.4180
      71      24       1      0.4238     31.4420     15.7420     38.1320
      72      24       1      0.4238     32.8820     16.4270     38.2950
      73      25       2     -0.8476     33.8730     26.5040     38.0900
      74      25       1      0.4238     34.2590     27.0390     38.8080
      75      25       1      0.4238     34.1690     27.1130     37.3310
      76      26       2     -0.8476     33.7580     24.7970     23.5890
      77      26       1      0.4238     33.9730     24.7190     22.6120
      78      26       1      0.4238     33.1990     25.5940     23.6570
      79      27       2     -0.8476     32.8520     13.0700     39.3300
      80      27       1      0.4238     32.5740     13.8940     38.9530
      81      27       1      0.4238     32.5350     12.5010     38.5710
      82      28       2     -0.8476     33.4600     25.4440     26.9540
      83      28       1      0.4238     34.3480     25.1220     27.2070
      84      28       1      0.4238     33.3080     26.1930     27.5280
      85      29       2     -0.8476     38.6900     18.0860     37.8280
      86      29       1      0.4238     38.9880     18.1840     38.7310
      87      29       1      0.4238     38.1440     17.2890     37.9210
      88      30       2     -0.8476     30.6440     22.2710     21.6240
      89      30       1      0.4238     30.4220     22.4530     22.5530
      90      30       1      0.4238     31.2470     21.4910     21.6170
      91      31       2     -0.8476     31.0100     17.8850     26.5400
      92      31       1      0.4238     30.7670     17.9360     25.5610
      93      31       1      0.4238     31.7100     18.5550     26.5800
      94      32       2     -0.8476     39.2290     26.4500     24.7180
      95      32       1      0.4238     38.3500     26.2410     24.4080
      96      32       1      0.4238     39.7010     25.5790     24.7170
      97      33       2     -0.8476     29.0470     16.1690     29.5790
      98      33       1      0.4238     28.7260     15.2680     29.3390
      99      33       1      0.4238     29.8050     16.2850     28.9900
     100      34       2     -0.8476     33.6560     17.0880     35.0460
     101      34       1      0.4238     34.1840     17.7640     35.4610
     102      34       1      0.4238     33.8920     16.3220     35.5370
     103      35       2     -0.8476     39.0040     18.4210     34.8830
     104      35       1      0.4238     39.2010     18.6120     35.8360
     105      35       1      0.4238     38.4270     17.6720     34.9980
     106      36       2     -0.8476     35.3270     13.9240     32.4110
     107      36       1      0.4238     34.4850     14.5010     32.5350
     108      36       1      0.4238     34.9920     13.1030     32.7420
     109      37       2     -0.8476     32.3280     19.3990     31.7760
     110      37       1      0.4238     32.8770     18.8930     31.1380
     111      37       1      0.4238     31.4710     19.0200     31.5440
     112      38       2     -0.8476     39.4770     21.3100     26.9280
     113      38       1      0.4238     38.7430     21.8720     27.0530
     114      38       1      0.4238     39.1660     20.4880     27.2980
     115      39       2     -0.8476     30.1380     14.9060     34.3980
     116      39       1      0.4238     30.5010     15.7810     34.5450
     117      39       1      0.4238     30.4170     14.6990     33.4220
     118      40       2     -0.8476     30.1990     23.3240     36.8930
     119      40       1      0.4238     29.4390     23.3780     36.3050
     120      40       1      0.4238     30.5580     24.2350     36.8550
     121      41       2     -0.8476     37.5200     25.6040     36.3400
     122      41       1      0.4238     38.3620     25.8980     36.7380
     123      41       1      0.4238     37.6940     24.6990     36.1020
     124      42       2     -0.8476     38.5950     25.7660     33.3200
     125      42       1      0.4238     38.8920     25.7670     34.2260
     126      42       1      0.4238     37.6220     25.9260     33.3500
     127      43       2     -0.8476     38.5740     23.1480     39.9590
     128      43       1      0.4238     39.1930     22.7730     40.6540
     129      43       1      0.4238     38.6440     22.5910     39.2380
     130      44       2     -0.8476     36.2290     21.3010     23.3220
     131      44       1      0.4238     35.6640     22.0400     22.9120
     132      44       1      0.4238     35.6180     20.7110     23.8200
     133      45       2     -0.8476     31.6200     13.1390     22.6930
     134      45       1      0.4238     31.3180     12.9630     21.7950
     135      45       1      0.4238     32.5180     13.4370     22.5330
     136      46       2     -0.8476     32.8390     14.3050     27.2950
     137      46       1      0.4238     33.7600     14.4020     27.1230
     138      46       1      0.4238     32.7340     13.3160     27.3630
     139      47       2     -0.8476     34.9670     19.2470     28.6460
     140      47       1      0.4238     34.4030     18.6750     29.2960
     141      47       1      0.4238     35.8580     18.9920     29.0460
     142      48       2     -0.8476     32.9540     17.4170     24.0230
     143      48       1      0.4238     33.3590     16.8260     23.3950
     144      48       1      0.4238     33.7090     17.4850     24.6340
     145      49       2     -0.8476     33.7880     25.9550     32.2120
     146      49       1      0.4238     34.5790     25.8260     32.7090
     147      49       1      0.4238     33.1640     25.6910     32.8780
     148      50       2     -0.8476     31.9860     20.0530     22.4010
     149      50       1      0.4238     32.7940     19.6300     22.0840
     150      50       1      0.4238     31.3410     19.4270     22.1970
     151      51       2     -0.8476     38.3300     23.1410     22.4340
     152      51       1      0.4238     37.5740     22.5270     22.4220
     153      51       1      0.4238     38.8330     23.0620     21.6610
     154      52       2     -0.8476     38.8500     21.2440     30.3150
     155      52       1      0.4238     38.3550     22.0430     30.3960
     156      52       1      0.4238     39.7600     21.5460     30.3370
     157      53       2     -0.8476     39.7560     14.0500     38.5850
     158      53       1      0.4238     39.0310     14.6310     38.7300
     159      53       1      0.4238     39.8460     13.5620     39.4010
     160      54       2     -0.8476     33.7500     20.7670     24.3370
     161      54       1      0.4238     33.0220     20.5400     23.7110
     162      54       1      0.4238     33.2390     20.4700     25.1170
     163      55       2     -0.8476     29.7430     15.6800     37.6270
     164      55       1      0.4238     29.8360     14.7500     37.2470
     165      55       1      0.4238     28.8890     15.9820     37.2560
     166      56       2     -0.8476     36.6440     19.5450     39.4290
     167      56       1      0.4238     36.7790     19.9920     40.2360
     168      56       1      0.4238     37.4020     19.7590     38.9000
     169      57       2     -0.8476     35.1570     22.8380     25.8290
     170      57       1      0.4238     34.4070     23.4500     25.8000
     171      57       1      0.4238     34.7800     22.0870     25.3530
     172      58       2     -0.8476     37.4970     16.0750     34.9640
     173      58       1      0.4238     37.4630     15.2900     34.3870
     174      58       1      0.4238     36.8160     15.8670     35.6040
     175      59       2     -0.8476     30.7210     15.4750     24.0580
     176      59       1      0.4238     30.9840     14.6340     23.6520
     177      59       1      0.4238     31.5190     16.0400     24.0480
     178      60       2     -0.8476     31.4740     13.2840     35.9760
     179      60       1      0.4238     30.6700     13.7770     35.8100
     180      60       1      0.4238     31.5700     12.6610     35.2520
     181      61       2     -0.8476     39.1480     21.7710     37.6310
     182      61       1      0.4238     38.6450     22.1770     36.9070
     183      61       1      0.4238     39.9630     22.2510     37.6380
     184      62       2     -0.8476     33.4410     13.3110     19.4990
     185      62       1      0.4238     32.9970     12.8100     20.2340
     186      62       1      0.4238     34.3310     13.0020     19.5860
     187      63       2     -0.8476     30.8090     15.2050     31.9100
     188      63       1      0.4238     30.4140     15.8380     31.3150
     189      63       1      0.4238     31.0150     14.4120     31.3830
     190      64       2     -0.8476     33.7610     18.4540     20.9430
     191      64       1      0.4238     34.7120     18.3270     21.0180
     192      64       1      0.4238     33.5090     17.6560     20.4340
     193      65       2     -0.8476     34.4420     23.5580     35.0520
     194      65       1      0.4238     34.0620     24.3420     34.6750
     195      65       1      0.4238     33.8660     22.8460     34.6610
     196      66       2     -0.8476     35.6140     11.9280     28.1520
     197      66       1      0.4238     35.7470     11.8960     27.1570
     198      66       1      0.4238     36.5190     12.0360     28.4260
     199      67       2     -0.8476     28.5890     22.2380     32.4680
     200      67       1      0.4238     28.5860     22.6370     31.6020
     201      67       1      0.4238     29.5620     22.0570     32.6690
     202      68       2     -0.8476     35.2680     23.3290     21.3530
     203      68       1      0.4238     34.8750     22.5960     20.8070
     204      68       1      0.4238     35.3830     23.9900     20.5900
     205      69       2     -0.8476     33.8260     20.0690     33.8580
     206      69       1      0.4238     33.2500     19.9180     33.0720
     207      69       1      0.4238     33.2450     20.6190     34.3630
     208      70       2     -0.8476     35.8290     16.2080     20.3960
     209      70       1      0.4238     36.6130     16.2820     19.8570
     210      70       1      0.4238     35.0830     16.2110     19.7680
     211      71       2     -0.8476     33.1840     15.7810     32.7130
     212      71       1      0.4238     33.2700     16.4460     33.3730
     213      71       1      0.4238     32.2320     15.6750     32.5930
     214      72       2     -0.8476     31.4740     22.8590     24.9540
     215      72       1      0.4238     32.2040     22.7730     24.3520
     216      72       1      0.4238     31.5040     23.8040     25.1290
     217      73       2     -0.8476     34.9120     15.0960     36.0420
     218      73       1      0.4238     34.4380     14.6870     36.8300
     219      73       1      0.4238     34.5480     14.5830     35.3060
     220      74       2     -0.8476     31.9280     27.1530     28.6840
     221      74       1      0.4238     31.9040     28.0680     28.3650
     222      74       1      0.4238     31.5660     27.1780     29.5920
     223      75       2     -0.8476     32.0590     24.9530     34.1430
     224      75       1      0.4238     31.8520     25.2460     35.0590
     225      75       1      0.4238     31.1620     25.0210     33.7400
     226      76       2     -0.8476     35.6190     26.1320     34.0150
     227      76       1      0.4238     35.9330     27.0190     33.7420
     228      76       1      0.4238     36.0020     26.0030     34.9330
     229      77       2     -0.8476     31.4170     23.5190     29.0700
     230      77       1      0.4238     31.7900     24.1960     28.5230
     231      77       1      0.4238     32.2370     23.2830     29.5390
     232      78       2     -0.8476     38.3500     17.3050     24.7580
     233      78       1      0.4238     38.4550     18.2540     24.5560
     234      78       1      0.4238     39.0970     17.0890     25.3090
     235      79       2     -0.8476     36.1810     15.2180     24.7000
     236      79       1      0.4238     36.8500     15.9250     24.8120
     237      79       1      0.4238     35.3700     15.5340     25.1690
     238      80       2     -0.8476     36.8590     15.2150     30.5350
     239      80       1      0.4238     36.7350     15.9980     31.1550
     240      80       1      0.4238     36.2550     14.5990     30.9520
     241      81       2     -0.8476     36.7000     17.2520     32.5570
     242      81       1      0.4238     37.3700     16.9400     33.1850
     243      81       1      0.4238     36.0390     17.6450     33.1630
     244      82       2     -0.8476     37.3160     15.7860     27.8140
     245      82       1      0.4238     37.6770     16.7010     27.8130
     246      82       1      0.4238     37.0260     15.4410     28.6610
     247      83       2     -0.8476     34.7390     16.8440     26.4550
     248      83       1      0.4238     35.6100     16.5360     26.8370
     249      83       1      0.4238     34.4210     17.5190     27.1160
     250      84       2     -0.8476     37.4310     12.7750     34.8410
     251      84       1      0.4238     38.2480     13.1630     34.4120
     252      84       1      0.4238     37.4130     11.8610     34.4640
     253      85       2     -0.8476     35.9940     20.0380     35.6870
     254      85       1      0.4238     35.6230     19.7810     36.5080
     255      85       1      0.4238     35.2910     20.1760     35.0720
     256      86       2     -0.8476     39.6160     13.9730     26.9560
     257      86       1      0.4238     39.6910     13.0580     27.1510
     258      86       1      0.4238     38.7230     14.1790     27.1810
     259      87       2     -0.8476     38.7070     18.3490     27.8880
     260      87       1      0.4238     38.1100     18.9150     28.3860
     261      87       1      0.4238     39.3770     18.1170     28.5470
     262      88       2     -0.8476     37.2000     19.0100     30.2900
     263      88       1      0.4238     37.0390     18.4060     31.0780
     264      88       1      0.4238     37.8550     19.7030     30.5310
     265      89       2     -0.8476     37.7950     26.1160     20.9790
     266      89       1      0.4238     38.6540     25.9030     20.5480
     267      89       1      0.4238     37.4650     25.2660     21.0990
     268      90       2     -0.8476     31.3800     12.6490     30.7880
     269      90       1      0.4238     31.9900     12.2000     30.1720
     270      90       1      0.4238     30.4960     12.2560     30.6410
     271      91       2     -0.8476     29.1970     24.5130     39.9400
     272      91       1      0.4238     29.5340     25.2770     40.4890
     273      91       1      0.4238     29.4100     23.7830     40.4420
     274      92       2     -0.8476     34.5550     21.5020     19.3640
     275      92       1      0.4238     35.2540     20.8210     19.6710
     276      92       1      0.4238     33.7590     20.9640     19.1960
     277      93       2     -0.8476     34.4400     15.3690     22.7040
     278      93       1      0.4238     35.0320     15.5370     21.9490
     279      93       1      0.4238     35.1070     15.1080     23.3780
     280      94       2     -0.8476     33.4500     23.3850     30.9940
     281      94       1      0.4238     33.6120     24.3410     31.0200
     282      94       1      0.4238     33.9140     23.1050     31.7780
     283      95       2     -0.8476     30.4790     25.1640     26.1770
     284      95       1      0.4238     31.0190     25.7610     26.7370
     285      95       1      0.4238     29.9400     24.7210     26.8430
     286      96       2     -0.8476     28.9880     14.4810     26.1140
     287      96       1      0.4238     29.7880     14.8900     25.7030
     288      96       1      0.4238     28.3530     15.1290     25.9300
     289      97       2     -0.8476     28.7490     19.0660     28.1400
     290      97       1      0.4238     28.5020     18.1790     28.0950
     291      97       1      0.4238     29.0960     19.2630     27.2560
     292      98       2     -0.8476     29.2130     24.0200     19.9370
     293      98       1      0.4238     28.9230     23.4000     19.2680
     294      98       1      0.4238     29.5900     23.4840     20.6280
     295      99       2     -0.8476     36.8610     22.6240     35.8810
     296      99       1      0.4238     36.2160     22.8880     35.2020
     297      99       1      0.4238     36.6090     21.7080     36.1230
     298     100       2     -0.8476     31.7060     11.8170     33.4930
     299     100       1      0.4238     31.6480     11.9440     32.5460
     300     100       1      0.4238     32.6780     11.8900     33.7240
     301     101       2     -0.8476     30.5780     15.6220     20.2000
     302     101       1      0.4238     31.0010     15.0920     19.5600
     303     101       1      0.4238     29.8560     15.1060     20.4150
     304     102       2     -0.8476     33.6480     27.1590     24.9880
     305     102       1      0.4238     33.2420     27.9110     25.4650
     306     102       1      0.4238     33.2640     26.3790     25.4220
     307     103       2     -0.8476     29.6120     25.2770     32.8290
     308     103       1      0.4238     29.8940     25.0500     31.9630
     309     103       1      0.4238     29.2050     26.1430     32.6340
     310     104       2     -0.8476     34.3130     27.7850     22.3260
     311     104       1      0.4238     34.3160     27.7350     23.2920
     312     104       1      0.4238     33.5490     27.2160     22.0460
     313     105       2     -0.8476     31.5070     25.6790     36.7720
     314     105       1      0.4238     32.2470     25.7820     37.3730
     315     105       1      0.4238     30.8850     26.3850     36.9210
     316     106       2     -0.8476     31.7380     19.7990     19.3160
     317     106       1      0.4238     30.8470     19.5470     19.5770
     318     106       1      0.4238     32.1890     19.4750     20.0930
     319     107       2     -0.8476     37.3160     27.3900     28.4850
     320     107       1      0.4238     37.4580     26.4690     28.7010
     321     107       1      0.4238     36.8370     27.2540     27.6520
     322     108       2     -0.8476     29.8620     18.2360     31.2390
     323     108       1      0.4238     29.2600     18.9500     31.0490
     324     108       1      0.4238     29.4970     17.5270     30.5530
     325     109       2     -0.8476     29.6140     21.0850     26.1730
     326     109       1      0.4238     29.6330     20.4060     25.4440
     327     109       1      0.4238     30.3560     21.6530     25.9800
     328     110       2     -0.8476     35.8720     12.1200     22.4780
     329     110       1      0.4238     35.9360     12.0390     21.5030
     330     110       1      0.4238     34.9280     11.9340     22.5300
     331     111       2     -0.8476     29.4330     18.7800     24.0780
     332     111       1      0.4238     29.5010     18.8020     23.1370
     333     111       1      0.4238     28.6580     18.2490     24.3020
     334     112       2     -0.8476     33.5790     17.4550     30.4570
     335     112       1      0.4238     32.8040     17.0330     29.9670
     336     112       1      0.4238     33.8640     16.6860     31.0190
     337     113       2     -0.8476     36.1340     26.1080     26.5270
     338     113       1      0.4238     35.4050     26.4170     25.9930
     339     113       1      0.4238     36.4940     25.4140     25.9260
     340     114       2     -0.8476     33.9670     23.5120     38.5420
     341     114       1      0.4238     33.9470     24.4430     38.4970
     342     114       1      0.4238     34.1890     23.3290     37.6180
     343     115       2     -0.8476     28.9750     23.2740     29.9520
     344     115       1      0.4238     29.8970     23.2460     29.5740
     345     115       1      0.4238     28.5650     23.8500     29.3390
     346     116       2     -0.8476     30.8830     27.8230     31.0460
     347     116       1      0.4238     31.7910     28.2080     31.0590
     348     116       1      0.4238     30.6120     28.0120     31.8870
     349     117       2     -0.8476     31.2150     25.8970     22.3930
     350     117       1      0.4238     30.4550     26.1140     22.9160
     351     117       1      0.4238     31.0190     25.0330     22.0110
     352     118       2     -0.8476     36.8780     12.5320     25.3510
     353     118       1      0.4238     36.2280     12.2300     24.6930
     354     118       1      0.4238     36.8630     13.5010     25.3350
     355     119       2     -0.8476     35.5870     21.8720     32.8150
     356     119       1      0.4238     34.9310     21.1730     33.0770
     357     119       1      0.4238     36.4190     21.3690     32.8520
     358     120       2     -0.8476     31.6470     22.1870     38.8140
     359     120       1      0.4238     31.0920     22.6550     38.1880
     360     120       1      0.4238     32.5640     22.3390     38.4560
     361     121       2     -0.8476      3.6680     21.7820     34.9040
     362     121       1      0.4238      3.2240     22.1510     34.1010
     363     121       1      0.4238      3.0920     22.0790     35.6270
     364     122       2     -0.8476      6.0330     16.5760     39.8910
     365     122       1      0.4238      6.0780     16.9240     40.7980
     366     122       1      0.4238      6.5920     15.7880     39.9610
     367     123       2     -0.8476      3.7860     28.0180     20.3100
     368     123       1      0.4238      3.7810     27.0880     20.1960
     369     123       1      0.4238      4.5280     28.2800     19.7810
     370     124       2     -0.8476      6.2050     18.6910     37.4420
     371     124       1      0.4238      6.7820     19.0470     38.1520
     372     124       1      0.4238      5.3090     18.7620     37.8000
     373     125       2     -0.8476      2.7500     20.5440     28.6290
     374     125       1      0.4238      2.1100     19.9900     28.9980
     375     125       1      0.4238      2.1640     20.9450     27.9620
     376     126       2     -0.8476     10.6740     20.6090     23.9860
     377     126       1      0.4238     10.9980     20.5710     24.9320
     378     126       1      0.4238      9.7480     20.9700     24.0750
     379     127       2     -0.8476      0.0020     17.3670     33.5910
     380     127       1      0.4238      0.4830     17.6900     32.8300
     381     127       1      0.4238      0.6080     17.4810     34.3470
     382     128       2     -0.8476      9.8820     20.8560     33.9160
     383     128       1      0.4238      9.5740     21.4530     34.5970
     384     128       1      0.4238     10.0210     19.9640     34.2890
     385     129       2     -0.8476      1.6610     18.3810     20.9430
     386     129       1      0.4238      1.9430     17.4390     20.9810
     387     129       1      0.4238      0.7780     18.2990     20.4830
     388     130       2     -0.8476     10.4260     19.3040     21.4040
     389     130       1      0.4238     10.7610     20.1010     20.9940
     390     130       1      0.4238     10.2480     19.5890     22.3080
     391     131       2     -0.8476     10.9260     17.0650     20.0180
     392     131       1      0.4238     11.1380     16.4690     20.7540
     393     131       1      0.4238     10.6570     17.9120     20.4930
     394     132       2     -0.8476      8.6470     16.0140     38.2780
     395     132       1      0.4238      7.9640     15.3110     38.3260
     396     132       1      0.4238      8.0430     16.7640     38.1530
     397     133       2     -0.8476      8.8920     24.6770     24.3210
     398     133       1      0.4238      8.1190     24.1780     24.4430
     399     133       1      0.4238      9.3420     24.2570     23.5360
     400     134       2     -0.8476      9.9350     24.5760     29.1910
     401     134       1      0.4238      9.7090     23.7980     28.6340
     402     134       1      0.4238      9.4720     24.4660     30.0180
     403     135       2     -0.8476      7.0600     13.7740     38.8300
     404     135       1      0.4238      7.6500     13.3190     39.5280
     405     135       1      0.4238      6.1480     13.4960     39.0350
     406     136       2     -0.8476      8.8230     22.2810     27.8270