box     948
    8619 atoms
    6026 bonds
    3753 angles
    1940 dihedrals
       5 atom types
       3 bond types
       3 angle types
       1 dihedral types

      0.0000     40.0000 xlo xhi
      0.0000     40.0000 ylo yhi
      0.0000     60.0000 zlo zhi

 Masses

 1  1.007940
 2 15.999400
 3 12.010700
 4 15.999400
 5  1.007940

 Atoms

       1       1       2     -0.8476     30.6680     23.0820     34.9040
       2       1       1      0.4238     30.2240     23.4510     34.1010
       3       1       1      0.4238     30.0920     23.3790     35.6270
       4       2       2     -0.8476     33.0330     17.8760     39.8910
       5       2       1      0.4238     33.0780     18.2240     40.7980
       6       2       1      0.4238     33.5920     17.0880     39.9610
       7       3       2     -0.8476     33.2050     19.9910     37.4420
       8       3       1      0.4238     33.7820     20.3470     38.1520
       9       3       1      0.4238     32.3090     20.0620     37.8000
      10       4       2     -0.8476     29.7500     21.8440     28.6290
      11       4       1      0.4238     29.1100     21.2900     28.9980
      12       4       1      0.4238     29.1640     22.2450     27.9620
      13       5       2     -0.8476     37.6740     21.9090     23.9860
      14       5       1      0.4238     37.9980     21.8710     24.9320
      15       5       1      0.4238     36.7480     22.2700     24.0750
      16       6       2     -0.8476     27.0020     18.6670     33.5910
      17       6       1      0.4238     27.4830     18.9900     32.8300
      18       6       1      0.4238     27.6080     18.7810     34.3470
      19       7       2     -0.8476     36.8820     22.1560     33.9160
      20       7       1      0.4238     36.5740     22.7530     34.5970
      21       7       1      0.4238     37.0210     21.2640     34.2890
      22       8       2     -0.8476     28.6610     19.6810     20.9430
      23       8       1      0.4238     28.9430     18.7390     20.9810
      24       8       1      0.4238     27.7780     19.5990     20.4830
      25       9       2     -0.8476     37.4260     20.6040     21.4040
      26       9       1      0.4238     37.7610     21.4010     20.9940
      27       9       1      0.4238     37.2480     20.8890     22.3080
      28      10       2     -0.8476     37.9260     18.3650     20.0180
      29      10       1      0.4238     38.1380     17.7690     20.7540
      30      10       1      0.4238     37.6570     19.2120     20.4930
      31      11       2     -0.8476     35.6470     17.3140     38.2780
      32      11       1      0.4238     34.9640     16.6110     38.3260
      33      11       1      0.4238     35.0430     18.0640     38.1530
      34      12       2     -0.8476     35.8920     25.9770     24.3210
      35      12       1      0.4238     35.1190     25.4780     24.4430
      36      12       1      0.4238     36.3420     25.5570     23.5360
      37      13       2     -0.8476     36.9350     25.8760     29.1910
      38      13       1      0.4238     36.7090     25.0980     28.6340
      39      13       1      0.4238     36.4720     25.7660     30.0180
      40      14       2     -0.8476     34.0600     15.0740     38.8300
      41      14       1      0.4238     34.6500     14.6190     39.5280
      42      14       1      0.4238     33.1480     14.7960     39.0350
      43      15       2     -0.8476     35.8230     23.5810     27.8270
      44      15       1      0.4238     35.1830     23.7530     27.1480
      45      15       1      0.4238     35.3890     23.0610     28.5340
      46      16       2     -0.8476     36.0780     24.9670     31.7340
      47      16       1      0.4238     35.2280     24.5610     31.9930
      48      16       1      0.4238     36.5120     25.1940     32.5600
      49      17       2     -0.8476     37.2820     13.6400     21.0530
      50      17       1      0.4238     37.3670     13.9590     22.0160
      51      17       1      0.4238     36.7430     14.3230     20.6670
      52      18       2     -0.8476     31.6180     21.1250     26.7770
      53      18       1      0.4238     32.4050     20.9190     27.3140
      54      18       1      0.4238     31.0020     21.4580     27.4220
      55      19       2     -0.8476     30.4030     17.6870     28.8150
      56      19       1      0.4238     30.1090     18.2720     28.0970
      57      19       1      0.4238     30.8170     16.9730     28.3270
      58      20       2     -0.8476     30.2760     20.4650     38.3250
      59      20       1      0.4238     29.7720     19.9910     38.9640
      60      20       1      0.4238     30.6040     21.2880     38.7530
      61      21       2     -0.8476     30.1190     23.3250     32.1580
      62      21       1      0.4238     30.5980     23.9000     31.5120
      63      21       1      0.4238     30.4400     22.4300     31.9620
      64      22       2     -0.8476     29.3780     18.8060     35.2530
      65      22       1      0.4238     29.1570     19.1610     36.0990
      66      22       1      0.4238     30.3010     19.0320     35.1260
      67      23       2     -0.8476     31.0170     16.9050     38.4180
      68      23       1      0.4238     30.1420     17.0420     38.1320
      69      23       1      0.4238     31.5820     17.7270     38.2950
      70      24       2     -0.8476     32.4580     26.0970     23.5890
      71      24       1      0.4238     32.6730     26.0190     22.6120
      72      24       1      0.4238     31.8990     26.8940     23.6570
      73      25       2     -0.8476     31.5520     14.3700     39.3300
      74      25       1      0.4238     31.2740     15.1940     38.9530
      75      25       1      0.4238     31.2350     13.8010     38.5710
      76      26       2     -0.8476     37.3900     19.3860     37.8280
      77      26       1      0.4238     37.6880     19.4840     38.7310
      78      26       1      0.4238     36.8440     18.5890     37.9210
      79      27       2     -0.8476     29.3440     23.5710     21.6240
      80      27       1      0.4238     29.1220     23.7530     22.5530
      81      27       1      0.4238     29.9470     22.7910     21.6170
      82      28       2     -0.8476     29.7100     19.1850     26.5400
      83      28       1      0.4238     29.4670     19.2360     25.5610
      84      28       1      0.4238     30.4100     19.8550     26.5800
      85      29       2     -0.8476     27.7470     17.4690     29.5790
      86      29       1      0.4238     27.4260     16.5680     29.3390
      87      29       1      0.4238     28.5050     17.5850     28.9900
      88      30       2     -0.8476     32.3560     18.3880     35.0460
      89      30       1      0.4238     32.8840     19.0640     35.4610
      90      30       1      0.4238     32.5920     17.6220     35.5370
      91      31       2     -0.8476     37.7040     19.7210     34.8830
      92      31       1      0.4238     37.9010     19.9120     35.8360
      93      31       1      0.4238     37.1270     18.9720     34.9980
      94      32       2     -0.8476     34.0270     15.2240     32.4110
      95      32       1      0.4238     33.1850     15.8010     32.5350
      96      32       1      0.4238     33.6920     14.4030     32.7420
      97      33       2     -0.8476     31.0280     20.6990     31.7760
      98      33       1      0.4238     31.5770     20.1930     31.1380
      99      33       1      0.4238     30.1710     20.3200     31.5440
     100      34       2     -0.8476     39.4930     22.4510     21.2150
     101      34       1      0.4238     39.9080     22.8400     21.9870
     102      34       1      0.4238     39.9820     21.6410     21.0390
     103      35       2     -0.8476     38.1770     22.6100     26.9280
     104      35       1      0.4238     37.4430     23.1720     27.0530
     105      35       1      0.4238     37.8660     21.7880     27.2980
     106      36       2     -0.8476     28.8380     16.2060     34.3980
     107      36       1      0.4238     29.2010     17.0810     34.5450
     108      36       1      0.4238     29.1170     15.9990     33.4220
     109      37       2     -0.8476     28.8990     24.6240     36.8930
     110      37       1      0.4238     28.1390     24.6780     36.3050
     111      37       1      0.4238     29.2580     25.5350     36.8550
     112      38       2     -0.8476     37.2740     24.4480     39.9590
     113      38       1      0.4238     37.8930     24.0730     40.6540
     114      38       1      0.4238     37.3440     23.8910     39.2380
     115      39       2     -0.8476     34.9290     22.6010     23.3220
     116      39       1      0.4238     34.3640     23.3400     22.9120
     117      39       1      0.4238     34.3180     22.0110     23.8200
     118      40       2     -0.8476     30.3200     14.4390     22.6930
     119      40       1      0.4238     30.0180     14.2630     21.7950
     120      40       1      0.4238     31.2180     14.7370     22.5330
     121      41       2     -0.8476     31.5390     15.6050     27.2950
     122      41       1      0.4238     32.4600     15.7020     27.1230
     123      41       1      0.4238     31.4340     14.6160     27.3630
     124      42       2     -0.8476     39.7930     26.3640     31.1680
     125      42       1      0.4238     39.7870     26.5480     30.2230
     126      42       1      0.4238     38.9950     26.7940     31.3990
     127      43       2     -0.8476     33.6670     20.5470     28.6460
     128      43       1      0.4238     33.1030     19.9750     29.2960
     129      43       1      0.4238     34.5580     20.2920     29.0460
     130      44       2     -0.8476     31.6540     18.7170     24.0230
     131      44       1      0.4238     32.0590     18.1260     23.3950
     132      44       1      0.4238     32.4090     18.7850     24.6340
     133      45       2     -0.8476     30.6860     21.3530     22.4010
     134      45       1      0.4238     31.4940     20.9300     22.0840
     135      45       1      0.4238     30.0410     20.7270     22.1970
     136      46       2     -0.8476     37.0300     24.4410     22.4340
     137      46       1      0.4238     36.2740     23.8270     22.4220
     138      46       1      0.4238     37.5330     24.3620     21.6610
     139      47       2     -0.8476     37.5500     22.5440     30.3150
     140      47       1      0.4238     37.0550     23.3430     30.3960
     141      47       1      0.4238     38.4600     22.8460     30.3370
     142      48       2     -0.8476     38.4560     15.3500     38.5850
     143      48       1      0.4238     37.7310     15.9310     38.7300
     144      48       1      0.4238     38.5460     14.8620     39.4010
     145      49       2     -0.8476     32.4500     22.0670     24.3370
     146      49       1      0.4238     31.7220     21.8400     23.7110
     147      49       1      0.4238     31.9390     21.7700     25.1170
     148      50       2     -0.8476     28.4430     16.9800     37.6270
     149      50       1      0.4238     28.5360     16.0500     37.2470
     150      50       1      0.4238     27.5890     17.2820     37.2560
     151      51       2     -0.8476     35.3440     20.8450     39.4290
     152      51       1      0.4238     35.4790     21.2920     40.2360
     153      51       1      0.4238     36.1020     21.0590     38.9000
     154      52       2     -0.8476     33.8570     24.1380     25.8290
     155      52       1      0.4238     33.1070     24.7500     25.8000
     156      52       1      0.4238     33.4800     23.3870     25.3530
     157      53       2     -0.8476     39.1130     13.9210     23.9420
     158      53       1      0.4238     39.8190     13.6350     24.5620
     159      53       1      0.4238     38.8140     14.8960     24.2230
     160      54       2     -0.8476     36.1970     17.3750     34.9640
     161      54       1      0.4238     36.1630     16.5900     34.3870
     162      54       1      0.4238     35.5160     17.1670     35.6040
     163      55       2     -0.8476     29.4210     16.7750     24.0580
     164      55       1      0.4238     29.6840     15.9340     23.6520
     165      55       1      0.4238     30.2190     17.3400     24.0480
     166      56       2     -0.8476     38.5180     15.1410     33.8350
     167      56       1      0.4238     38.3560     15.7690     33.1010
     168      56       1      0.4238     39.3450     14.7270     33.5830
     169      57       2     -0.8476     30.1740     14.5840     35.9760
     170      57       1      0.4238     29.3700     15.0770     35.8100
     171      57       1      0.4238     30.2700     13.9610     35.2520
     172      58       2     -0.8476     37.8480     23.0710     37.6310
     173      58       1      0.4238     37.3450     23.4770     36.9070
     174      58       1      0.4238     38.6630     23.5510     37.6380
     175      59       2     -0.8476     32.1410     14.6110     19.4990
     176      59       1      0.4238     31.6970     14.1100     20.2340
     177      59       1      0.4238     33.0310     14.3020     19.5860
     178      60       2     -0.8476     29.5090     16.5050     31.9100
     179      60       1      0.4238     29.1140     17.1380     31.3150
     180      60       1      0.4238     29.7150     15.7120     31.3830
     181      61       2     -0.8476     32.4610     19.7540     20.9430
     182      61       1      0.4238     33.4120     19.6270     21.0180
     183      61       1      0.4238     32.2090     18.9560     20.4340
     184      62       2     -0.8476     33.1420     24.8580     35.0520
     185      62       1      0.4238     32.7620     25.6420     34.6750
     186      62       1      0.4238     32.5660     24.1460     34.6610
     187      63       2     -0.8476     38.7800     26.5090     19.9830
     188      63       1      0.4238     39.3110     26.4220     20.7940
     189      63       1      0.4238     39.3790     26.8160     19.3000
     190      64       2     -0.8476     34.3140     13.2280     28.1520
     191      64       1      0.4238     34.4470     13.1960     27.1570
     192      64       1      0.4238     35.2190     13.3360     28.4260
     193      65       2     -0.8476     27.2890     23.5380     32.4680
     194      65       1      0.4238     27.2860     23.9370     31.6020
     195      65       1      0.4238     28.2620     23.3570     32.6690
     196      66       2     -0.8476     39.4400     25.4070     24.3700
     197      66       1      0.4238     38.6520     24.8870     24.1050
     198      66       1      0.4238     39.8930     24.8670     24.9770
     199      67       2     -0.8476     33.9680     24.6290     21.3530
     200      67       1      0.4238     33.5750     23.8960     20.8070
     201      67       1      0.4238     34.0830     25.2900     20.5900
     202      68       2     -0.8476     37.9630     14.7370     30.7900
     203      68       1      0.4238     37.3190     15.2400     30.3340
     204      68       1      0.4238     38.7090     15.1670     30.2100
     205      69       2     -0.8476     32.5260     21.3690     33.8580
     206      69       1      0.4238     31.9500     21.2180     33.0720
     207      69       1      0.4238     31.9450     21.9190     34.3630
     208      70       2     -0.8476     34.5290     17.5080     20.3960
     209      70       1      0.4238     35.3130     17.5820     19.8570
     210      70       1      0.4238     33.7830     17.5110     19.7680
     211      71       2     -0.8476     38.2000     17.1510     22.4710
     212      71       1      0.4238     39.0530     17.3600     22.9280
     213      71       1      0.4238     37.5720     17.4260     23.1380
     214      72       2     -0.8476     31.8840     17.0810     32.7130
     215      72       1      0.4238     31.9700     17.7460     33.3730
     216      72       1      0.4238     30.9320     16.9750     32.5930
     217      73       2     -0.8476     30.1740     24.1590     24.9540
     218      73       1      0.4238     30.9040     24.0730     24.3520
     219      73       1      0.4238     30.2040     25.1040     25.1290
     220      74       2     -0.8476     39.9220     15.9110     36.4120
     221      74       1      0.4238     39.4210     15.4310     37.0890
     222      74       1      0.4238     39.2400     15.9960     35.7010
     223      75       2     -0.8476     33.6120     16.3960     36.0420
     224      75       1      0.4238     33.1380     15.9870     36.8300
     225      75       1      0.4238     33.2480     15.8830     35.3060
     226      76       2     -0.8476     30.7590     26.2530     34.1430
     227      76       1      0.4238     30.5520     26.5460     35.0590
     228      76       1      0.4238     29.8620     26.3210     33.7400
     229      77       2     -0.8476     30.1170     24.8190     29.0700
     230      77       1      0.4238     30.4900     25.4960     28.5230
     231      77       1      0.4238     30.9370     24.5830     29.5390
     232      78       2     -0.8476     37.0500     18.6050     24.7580
     233      78       1      0.4238     37.1550     19.5540     24.5560
     234      78       1      0.4238     37.7970     18.3890     25.3090
     235      79       2     -0.8476     34.8810     16.5180     24.7000
     236      79       1      0.4238     35.5500     17.2250     24.8120
     237      79       1      0.4238     34.0700     16.8340     25.1690
     238      80       2     -0.8476     35.5590     16.5150     30.5350
     239      80       1      0.4238     35.4350     17.2980     31.1550
     240      80       1      0.4238     34.9550     15.8990     30.9520
     241      81       2     -0.8476     35.4000     18.5520     32.5570
     242      81       1      0.4238     36.0700     18.2400     33.1850
     243      81       1      0.4238     34.7390     18.9450     33.1630
     244      82       2     -0.8476     36.0160     17.0860     27.8140
     245      82       1      0.4238     36.3770     18.0010     27.8130
     246      82       1      0.4238     35.7260     16.7410     28.6610
     247      83       2     -0.8476     33.4390     18.1440     26.4550
     248      83       1      0.4238     34.3100     17.8360     26.8370
     249      83       1      0.4238     33.1210     18.8190     27.1160
     250      84       2     -0.8476     39.0760     17.6450     32.5660
     251      84       1      0.4238     39.0000     18.5220     32.1480
     252      84       1      0.4238     38.8270     17.8350     33.4430
     253      85       2     -0.8476     36.1310     14.0750     34.8410
     254      85       1      0.4238     36.9480     14.4630     34.4120
     255      85       1      0.4238     36.1130     13.1610     34.4640
     256      86       2     -0.8476     34.6940     21.3380     35.6870
     257      86       1      0.4238     34.3230     21.0810     36.5080
     258      86       1      0.4238     33.9910     21.4760     35.0720
     259      87       2     -0.8476     38.9120     26.2120     38.7260
     260      87       1      0.4238     39.8540     26.2250     38.8810
     261      87       1      0.4238     38.5040     25.7640     39.5550
     262      88       2     -0.8476     38.3160     15.2730     26.9560
     263      88       1      0.4238     38.3910     14.3580     27.1510
     264      88       1      0.4238     37.4230     15.4790     27.1810
     265      89       2     -0.8476     37.4070     19.6490     27.8880
     266      89       1      0.4238     36.8100     20.2150     28.3860
     267      89       1      0.4238     38.0770     19.4170     28.5470
     268      90       2     -0.8476     35.9000     20.3100     30.2900
     269      90       1      0.4238     35.7390     19.7060     31.0780
     270      90       1      0.4238     36.5550     21.0030     30.5310
     271      91       2     -0.8476     39.4140     22.0040     32.9090
     272      91       1      0.4238     38.5230     21.9310     33.1840
     273      91       1      0.4238     39.3750     22.7660     32.2860
     274      92       2     -0.8476     30.0800     13.9490     30.7880
     275      92       1      0.4238     30.6900     13.5000     30.1720
     276      92       1      0.4238     29.1960     13.5560     30.6410
     277      93       2     -0.8476     27.8970     25.8130     39.9400
     278      93       1      0.4238     28.2340     26.5770     40.4890
     279      93       1      0.4238     28.1100     25.0830     40.4420
     280      94       2     -0.8476     33.2550     22.8020     19.3640
     281      94       1      0.4238     33.9540     22.1210     19.6710
     282      94       1      0.4238     32.4590     22.2640     19.1960
     283      95       2     -0.8476     33.1400     16.6690     22.7040
     284      95       1      0.4238     33.7320     16.8370     21.9490
     285      95       1      0.4238     33.8070     16.4080     23.3780
     286      96       2     -0.8476     32.1500     24.6850     30.9940
     287      96       1      0.4238     32.3120     25.6410     31.0200
     288      96       1      0.4238     32.6140     24.4050     31.7780
     289      97       2     -0.8476     27.6880     15.7810     26.1140
     290      97       1      0.4238     28.4880     16.1900     25.7030
     291      97       1      0.4238     27.0530     16.4290     25.9300
     292      98       2     -0.8476     27.4490     20.3660     28.1400
     293      98       1      0.4238     27.2020     19.4790     28.0950
     294      98       1      0.4238     27.7960     20.5630     27.2560
     295      99       2     -0.8476     27.9130     25.3200     19.9370
     296      99       1      0.4238     27.6230     24.7000     19.2680
     297      99       1      0.4238     28.2900     24.7840     20.6280
     298     100       2     -0.8476     35.5610     23.9240     35.8810
     299     100       1      0.4238     34.9160     24.1880     35.2020
     300     100       1      0.4238     35.3090     23.0080     36.1230
     301     101       2     -0.8476     30.4060     13.1170     33.4930
     302     101       1      0.4238     30.3480     13.2440     32.5460
     303     101       1      0.4238     31.3780     13.1900     33.7240
     304     102       2     -0.8476     29.2780     16.9220     20.2000
     305     102       1      0.4238     29.7010     16.3920     19.5600
     306     102       1      0.4238     28.5560     16.4060     20.4150
     307     103       2     -0.8476     30.4380     21.0990     19.3160
     308     103       1      0.4238     29.5470     20.8470     19.5770
     309     103       1      0.4238     30.8890     20.7750     20.0930
     310     104       2     -0.8476     28.5620     19.5360     31.2390
     311     104       1      0.4238     27.9600     20.2500     31.0490
     312     104       1      0.4238     28.1970     18.8270     30.5530
     313     105       2     -0.8476     28.3140     22.3850     26.1730
     314     105       1      0.4238     28.3330     21.7060     25.4440
     315     105       1      0.4238     29.0560     22.9530     25.9800
     316     106       2     -0.8476     34.5720     13.4200     22.4780
     317     106       1      0.4238     34.6360     13.3390     21.5030
     318     106       1      0.4238     33.6280     13.2340     22.5300
     319     107       2     -0.8476     28.1330     20.0800     24.0780
     320     107       1      0.4238     28.2010     20.1020     23.1370
     321     107       1      0.4238     27.3580     19.5490     24.3020
     322     108       2     -0.8476     32.2790     18.7550     30.4570
     323     108       1      0.4238     31.5040     18.3330     29.9670
     324     108       1      0.4238     32.5640     17.9860     31.0190
     325     109       2     -0.8476     32.6670     24.8120     38.5420
     326     109       1      0.4238     32.6470     25.7430     38.4970
     327     109       1      0.4238     32.8890     24.6290     37.6180
     328     110       2     -0.8476     27.6750     24.5740     29.9520
     329     110       1      0.4238     28.5970     24.5460     29.5740
     330     110       1      0.4238     27.2650     25.1500     29.3390
     331     111       2     -0.8476     35.5780     13.8320     25.3510
     332     111       1      0.4238     34.9280     13.5300     24.6930
     333     111       1      0.4238     35.5630     14.8010     25.3350
     334     112       2     -0.8476     34.2870     23.1720     32.8150
     335     112       1      0.4238     33.6310     22.4730     33.0770
     336     112       1      0.4238     35.1190     22.6690     32.8520
     337     113       2     -0.8476     30.3470     23.4870     38.8140
     338     113       1      0.4238     29.7920     23.9550     38.1880
     339     113       1      0.4238     31.2640     23.6390     38.4560
     340     114       2     -0.8476      3.6680     23.0820     34.9040
     341     114       1      0.4238      3.2240     23.4510     34.1010
     342     114       1      0.4238      3.0920     23.3790     35.6270
     343     115       2     -0.8476      6.0330     17.8760     39.8910
     344     115       1      0.4238      6.0780     18.2240     40.7980
     345     115       1      0.4238      6.5920     17.0880     39.9610
     346     116       2     -0.8476      6.2050     19.9910     37.4420
     347     116       1      0.4238      6.7820     20.3470     38.1520
     348     116       1      0.4238      5.3090     20.0620     37.8000
     349     117       2     -0.8476      2.7500     21.8440     28.6290
     350     117       1      0.4238      2.1100     21.2900     28.9980
     351     117       1      0.4238      2.1640     22.2450     27.9620
     352     118       2     -0.8476     10.6740     21.9090     23.9860
     353     118       1      0.4238     10.9980     21.8710     24.9320
     354     118       1      0.4238      9.7480     22.2700     24.0750
     355     119       2     -0.8476      0.0020     18.6670     33.5910
     356     119       1      0.4238      0.4830     18.9900     32.8300
     357     119       1      0.4238      0.6080     18.7810     34.3470
     358     120       2     -0.8476      9.8820     22.1560     33.9160
     359     120       1      0.4238      9.5740     22.7530     34.5970
     360     120       1      0.4238     10.0210     21.2640     34.2890
     361     121       2     -0.8476      1.6610     19.6810     20.9430
     362     121       1      0.4238      1.9430     18.7390     20.9810
     363     121       1      0.4238      0.7780     19.5990     20.4830
     364     122       2     -0.8476     10.4260     20.6040     21.4040
     365     122       1      0.4238     10.7610     21.4010     20.9940
     366     122       1      0.4238     10.2480     20.8890     22.3080
     367     123       2     -0.8476     10.9260     18.3650     20.0180
     368     123       1      0.4238     11.1380     17.7690     20.7540
     369     123       1      0.4238     10.6570     19.2120     20.4930
     370     124       2     -0.8476      8.6470     17.3140     38.2780
     371     124       1      0.4238      7.9640     16.6110     38.3260
     372     124       1      0.4238      8.0430     18.0640     38.1530
     373     125       2     -0.8476      8.8920     25.9770     24.3210
     374     125       1      0.4238      8.1190     25.4780     24.4430
     375     125       1      0.4238      9.3420     25.5570     23.5360
     376     126       2     -0.8476      9.9350     25.8760     29.1910
     377     126       1      0.4238      9.7090     25.0980     28.6340
     378     126       1      0.4238      9.4720     25.7660     30.0180
     379     127       2     -0.8476      7.0600     15.0740     38.8300
     380     127       1      0.4238      7.6500     14.6190     39.5280
     381     127       1      0.4238      6.1480     14.7960     39.0350
     382     128       2     -0.8476      8.8230     23.5810     27.8270
     383     128       1      0.4238      8.1830     23.7530     27.1480
     384     128       1      0.4238      8.3890     23.0610     28.5340
     385     129       2     -0.8476      9.0780     24.9670     31.7340
     386     129       1      0.4238      8.2280     24.5610     31.9930
     387     129       1      0.4238      9.5120     25.1940     32.5600
     388     130       2     -0.8476     10.2820     13.6400     21.0530
     389     130       1      0.4238     10.3670     13.9590     22.0160
     390     130       1      0.4238      9.7430     14.3230     20.6670
     391     131       2     -0.8476      4.6180     21.1250     26.7770
     392     131       1      0.4238      5.4050     20.9190     27.3140
     393     131       1      0.4238      4.0020     21.4580     27.4220
     394     132       2     -0.8476      3.4030     17.6870     28.8150
     395     132       1      0.4238      3.1090     18.2720     28.0970
     396     132       1      0.4238      3.8170     16.9730     28.3270
     397     133       2     -0.8476      3.2760     20.4650     38.3250
     398     133       1      0.4238      2.7720     19.9910     38.9640
     399     133       1      0.4238      3.6040     21.2880     38.7530
     400     134       2     -0.8476      3.1190     23.3250     32.1580
     401     134       1      0.4238      3.5980     23.9000     31.5120
     402     134       1      0.4238      3.4400     22.4300     31.9620
     403     135       2     -0.8476      2.3780     18.8060     35.2530
     404     135       1      0.4238      2.1570     19.1610     36.0990
     405     135       1      0.4238      3.3010     19.0320     35.1260
     406     136       2     -0.8476      4.0170     16.9050     38.4180