box     948
    5 atoms
    4 bonds
    3 angles
    
      2 atom types
      1 bond types
      1 angle types
      
      -10.0000     10 xlo xhi
     -5.0000     5  ylo yhi
     -5.0000     5  zlo zhi

 Masses

  1 12.010700
  2 12.010700

 Atoms
 
 1  1  2 0 1.40  0  0
 2  1  1 0 2.80  0  0  
 3  1  1 0 4.20  0  0
 4  1  1 0 5.60  0  0
 5  1  2 0 7.00  0  0
 
 Bonds
 
    1   1   1   2
    2   1   2   3
    3   1   3   4
    4   1   4   5
    
 Angles
 
 1  1  1  2  3
 2  1  2  3  4
 3  1  3  4  5
