LAMMPS (1 Jul 2012)

dimension    3
boundary     p    p    p
processors   1    1    1

units        real
atom_style   full
pair_style   lj/cut   12.0

read_data    data
  1 = max bonds/atom
  1 = max angles/atom
  orthogonal box = (-10 -5 -5) to (10 5 5)
  1 by 1 by 1 MPI processor grid
  5 atoms
  4 bonds
  3 angles
  2 = max # of 1-2 neighbors
  2 = max # of 1-3 neighbors
  2 = max # of 1-4 neighbors
  4 = max # of special neighbors

pair_coeff   1   1   0.1051    3.851   ###C-C
pair_coeff   2   2   0.1051    3.851   ###C-C
pair_coeff   1   2   0.1051    3.851   ###C-C

bond_style     morse
bond_coeff     1  114.4092    2.1867    1.418

angle_style    cosine/squared
angle_coeff    1  67.1548   180

group   edge   type   1
3 atoms in group edge
group   inner  type   2
2 atoms in group inner
group   pore   type   2
2 atoms in group pore
neighbor       2.0 bin
neigh_modify   delay 5

compute    pe all pe/atom
compute    ke all ke/atom
compute    inTemp inner temp
compute    dist  pore  com
compute    epol all pe/atom
compute    1 all stress/atom  virial
compute    p inner reduce sum c_1[1] c_1[2] c_1[3]
compute    v pore property/atom vx vy vz
compute    vp pore reduce sum c_v[1] c_v[2] c_v[3]

variable   atomVol  equal  8.382017396
variable   tolVol   equal  v_atomVol*count(inner)
variable   BartoGPa equal  0.0001
variable   scale    equal  v_BartoGPa/v_atomVol
variable   atomS    equal  2.619380436
variable   load     equal  160000/v_atomS    # 1 pressure = ? MPa eV/A->N
variable   xpress equal  c_p[1]*v_BartoGPa/v_tolVol
variable   ypress equal  c_p[2]*v_BartoGPa/v_tolVol
variable   zpress equal  c_p[3]*v_BartoGPa/v_tolVol

variable   s1  atom   c_1[1]*v_scale
variable   s2  atom   c_1[2]*v_scale
variable   s3  atom   c_1[3]*v_scale
variable   s4  atom   c_1[4]*v_scale
variable   s5  atom   c_1[5]*v_scale
variable   s6  atom   c_1[6]*v_scale

fix     1  all  box/relax  aniso  0  vmax 0.01 dilate all nreset 100

thermo     10
thermo_style  custom step c_inTemp pxx pyy pe ke lx v_xpress v_ypress c_dist[3]
min_style     sd
min_modify    dmax 0.2
minimize      1.0e-20 1.0e-20 10000 1000000
WARNING: Resetting reneighboring criteria during minimization (min.cpp:173)
Memory usage per processor = 5.18127 Mbytes
Step inTemp Pxx Pyy PotEng KinEng Lx xpress ypress dist[3] 
       0            0    4003.5608   -5.4967293   0.64126767            0           20   -11.874526  0.023579792            0 
      10            0    10.512142    -5.420094 -0.093571256            0    20.243499  0.028263489  0.023472752 -1.1097893e-015 
      20            0   -6.2830641   -5.4441062 -0.093764802            0    20.244562  0.083790835  0.023547897 -1.108922e-015 
      30            0   -6.2887756   -5.4585893 -0.093877411            0    20.244562   0.08379786  0.023592844 -5.5424415e-016 
      40            0   -6.2946814   -5.4731493 -0.093990543            0    20.244562  0.083807999  0.023637995 -5.5424415e-016 
      50            0   -6.3006124    -5.487787 -0.094104201            0    20.244562  0.083818191  0.023683352 -1.1080546e-015 
      60            0   -6.3065686   -5.5025028 -0.094218389            0    20.244562  0.083828434  0.023728916 -5.5381047e-016 
      70            0   -6.3125504   -5.5172975 -0.094333111            0    20.244562  0.083838731  0.023774689 -5.5337679e-016 
      80            0   -6.3185578   -5.5321716 -0.094448371            0    20.244562  0.083849081  0.023820672 -1.1067536e-015 
      90            0   -6.3245911   -5.5471259 -0.094564173            0    20.244562  0.083859485  0.023866867 -1.1063199e-015 
     100            0   -6.3306504   -5.5621609  -0.09468052            0    20.244562  0.083869942  0.023913275 -1.1058862e-015 
     110            0    -6.336736   -5.5772773 -0.094797418            0    20.244562  0.083880455  0.023959898 -5.5294311e-016 
     120            0   -6.3428481   -5.5924757  -0.09491487            0    20.244562  0.083891022  0.024006737 -5.5250943e-016 
     130            0   -6.3489867    -5.607757  -0.09503288            0    20.244562  0.083901645  0.024053795 -5.5250943e-016 
     140            0   -6.3551522   -5.6231216 -0.095151452            0    20.244562  0.083912323  0.024101072 -1.1045852e-015 
     150            0   -6.3613447   -5.6385704 -0.095270591            0    20.244562  0.083923058   0.02414857 -1.1041515e-015 
     160            0   -6.3675645   -5.6541039 -0.095390301            0    20.244562  0.083933849  0.024196292 -1.1037178e-015 
     170            0   -6.3738116    -5.669723 -0.095510586            0    20.244562  0.083944698  0.024244238 -5.5164207e-016 
     180            0   -6.3800865   -5.6854283 -0.095631451            0    20.244562  0.083955604   0.02429241 -5.5120838e-016 
     190            0   -6.3863891   -5.7012205   -0.0957529            0    20.244562  0.083966568  0.024340811 -1.1024168e-015 
     200            0   -6.3927198   -5.7171004 -0.095874937            0    20.244562  0.083977591  0.024389441 -1.1019831e-015 
     210            0   -6.3990788   -5.7330686 -0.095997568            0    20.244562  0.083988672  0.024438303 -5.507747e-016 
     220            0   -6.4054663    -5.749126 -0.096120795            0    20.244562  0.083999814  0.024487397 -1.1011157e-015 
     230            0   -6.4118824   -5.7652733 -0.096244626            0    20.244562  0.084011015  0.024536727 -1.100682e-015 
     240            0   -6.4183275   -5.7815112 -0.096369063            0    20.244562  0.084022276  0.024586294 -5.5034102e-016 
     250            0   -6.4248017   -5.7978406 -0.096494111            0    20.244562  0.084033598  0.024636099 -5.4990734e-016 
     260            0   -6.4313053   -5.8142621 -0.096619776            0    20.244562  0.084044982  0.024686144 -1.099381e-015 
     270            0   -6.4378384   -5.8307766 -0.096746062            0    20.244562  0.084056427  0.024736432 -5.4947366e-016 
     280            0   -6.4444014   -5.8473848 -0.096872974            0    20.244562  0.084067935  0.024786964 -1.0985136e-015 
     290            0   -6.4509944   -5.8640876 -0.097000516            0    20.244562  0.084079506  0.024837742 -1.0985136e-015 
     300            0   -6.4576177   -5.8808858 -0.097128695            0    20.244562   0.08409114  0.024888768 -5.4903998e-016 
     310            0   -6.4642715   -5.8977802 -0.097257514            0    20.244562  0.084102838  0.024940044 -1.0976463e-015 
     320            0   -6.4709561   -5.9147716 -0.097386979            0    20.244562  0.084114601  0.024991572 -5.486063e-016 
     330            0   -6.4776717   -5.9318609 -0.097517096            0    20.244562  0.084126428  0.025043353 -1.0967789e-015 
     340            0   -6.4844185   -5.9490489 -0.097647868            0    20.244562  0.084138321   0.02509539 -5.4817262e-016 
     350            0   -6.4911968   -5.9663365 -0.097779302            0    20.244562   0.08415028  0.025147685 -5.4773894e-016 
     360            0   -6.4947643   -5.9837241 -0.097911401            0    20.244562  0.084151971  0.025200239 -1.0954779e-015 
     370            0   -6.4839361   -6.0012098 -0.098044154            0    20.244561  0.084107796  0.025253043 -5.4730526e-016 
     380            0    -6.473629   -6.0187952 -0.098177564            0     20.24456  0.084065333  0.025306105 -1.0946105e-015 
     390            0   -6.4624547   -6.0364811 -0.098311639            0    20.244559  0.084020163  0.025359424 -5.4687158e-016 
     400            0   -6.4521564   -6.0542689 -0.098446385            0    20.244558  0.083977833  0.025413006 -1.0937432e-015 
     410            0   -6.4405929   -6.0721594 -0.098581808            0    20.244557  0.083931537  0.025466851 -5.4643789e-016 
     420            0   -6.4303252    -6.090154 -0.098717918            0    20.244555  0.083889409  0.025520963 -5.4643789e-016 
     430            0   -6.4183601   -6.1082535 -0.098854719            0    20.244554  0.083841952  0.025575344 -5.4600421e-016 
     440            0   -6.4081052   -6.1264594  -0.09899222            0    20.244553  0.083799973  0.025629997 -1.0920084e-015 
     450            0    -6.395772   -6.1447725 -0.099130428            0    20.244552  0.083751467  0.025684926 -1.0915747e-015 
     460            0   -6.3854629   -6.1631944 -0.099269351            0    20.244551  0.083709425  0.025740133 -5.4557053e-016 
     470            0   -6.3728417   -6.1817259 -0.099408996            0     20.24455  0.083660129   0.02579562 -1.0907074e-015 
     480            0    -6.261736   -6.2003564 -0.099549318            0    20.244543  0.083299933  0.025851353 -5.4513685e-016 
     490            0   -5.8449884    -6.219059 -0.099690183            0    20.244517  0.081976003  0.025907241 -1.08984e-015 
     500            0    13.816483   -6.7425873  -0.10357611            0    20.243328  0.021052424  0.027452374 -1.0781306e-015 
     510            0    4.7421098   -7.4836537  -0.10897378            0    20.243876  0.049147445  0.029582944 -1.0633855e-015 
     520            0   -6.8352948    -7.884749  -0.11183257            0     20.24446   0.10333259  0.030710629 -1.0560129e-015 
     530            0   -10.474769   -7.9175194  -0.11206546            0    20.244749  0.095128421  0.030802254 -1.0555792e-015 
     540            0   -10.489315   -7.9497456  -0.11229338            0    20.244749  0.095148914  0.030891998 -5.2735594e-016 
     550            0   -10.503964   -7.9822297  -0.11252289            0    20.244749  0.095169726  0.030982353 -5.2735594e-016 
     560            0   -10.518706   -8.0149747    -0.112754            0    20.244749  0.095190702  0.031073326 -5.2692226e-016 
     570            0   -10.533542   -8.0479837  -0.11298674            0    20.244749  0.095211846  0.031164923 -1.0534108e-015 
     580            0   -10.548473     -8.08126  -0.11322112            0    20.244749  0.095233158  0.031257153 -1.0525435e-015 
     590            0   -10.563501   -8.1148067  -0.11345716            0    20.244749  0.095254642   0.03135002 -5.2605489e-016 
     600            0   -10.578626   -8.1486271  -0.11369487            0    20.244749  0.095276298  0.031443533 -1.0516761e-015 
     610            0    -10.59385   -8.1827246  -0.11393428            0    20.244749   0.09529813  0.031537698 -5.2562121e-016 
     620            0   -10.609173   -8.2171024  -0.11417541            0    20.244749  0.095320138  0.031632523 -1.0503751e-015 
     630            0   -10.624597   -8.2517641  -0.11441827            0    20.244749  0.095342324  0.031728014 -1.0499414e-015 
     640            0   -10.640123   -8.2867131  -0.11466288            0    20.244749  0.095364692  0.031824179 -1.049074e-015 
     650            0   -10.655751    -8.321953  -0.11490926            0    20.244749  0.095387243  0.031921026 -5.2432017e-016 
     660            0   -10.671483   -8.3574874  -0.11515743            0    20.244749  0.095409979  0.032018561 -5.2388649e-016 
     670            0   -10.687321   -8.3933198  -0.11540742            0    20.244749  0.095432903  0.032116794 -1.0473393e-015 
     680            0   -10.703264   -8.4294541  -0.11565924            0    20.244749  0.095456016   0.03221573 -5.2345281e-016 
     690            0   -10.719316    -8.465894  -0.11591291            0    20.244749  0.095479321   0.03231538 -1.0460383e-015 
     700            0   -10.735475   -8.5026434  -0.11616847            0    20.244749   0.09550282   0.03241575 -5.2258545e-016 
     710            0   -10.751745   -8.5397062  -0.11642591            0    20.244749  0.095526516  0.032516848 -5.2258545e-016 
     720            0   -10.768126   -8.5770864  -0.11668528            0    20.244749   0.09555041  0.032618683 -1.0443035e-015 
     730            0   -10.784619   -8.6147879  -0.11694659            0    20.244749  0.095574506  0.032721264 -1.0438699e-015 
     740            0   -10.801226   -8.6528149  -0.11720986            0    20.244749  0.095598805  0.032824599 -5.2171809e-016 
     750            0   -10.817949   -8.6911716  -0.11747512            0    20.244749   0.09562331  0.032928696 -1.0425688e-015 
     760            0   -10.834787   -8.7298623  -0.11774239            0    20.244749  0.095648024  0.033033565 -1.0421351e-015 
     770            0   -10.851743   -8.7688912  -0.11801169            0    20.244749  0.095672949  0.033139214 -1.0412678e-015 
     780            0   -10.868818   -8.8082627  -0.11828305            0    20.244749  0.095698087  0.033245653 -1.0408341e-015 
     790            0   -10.886014   -8.8479814   -0.1185565            0    20.244749  0.095723442  0.033352891 -1.0399667e-015 
     800            0   -10.903331   -8.8880518  -0.11883205            0    20.244749  0.095749016  0.033460936 -5.1954968e-016 
     810            0   -10.920772   -8.9284785  -0.11910974            0    20.244749  0.095774812    0.0335698 -5.1954968e-016 
     820            0   -10.938338   -8.9692662  -0.11938958            0    20.244749  0.095800832  0.033679491 -1.038232e-015 
     830            0    -10.95603   -9.0104197  -0.11967161            0    20.244749   0.09582708  0.033790019 -1.0373646e-015 
     840            0   -10.973849   -9.0519439  -0.11995585            0    20.244749  0.095853558  0.033901394 -1.036931e-015 
     850            0   -10.991798   -9.0938438  -0.12024233            0    20.244749  0.095880269  0.034013627 -1.0364973e-015 
     860            0   -11.009878   -9.1361245  -0.12053107            0    20.244749  0.095907216  0.034126728 -5.1781496e-016 
     870            0    -11.02809    -9.178791  -0.12082211            0    20.244749  0.095934403  0.034240707 -1.0351962e-015 
     880            0   -11.046436   -9.2218486  -0.12111547            0    20.244749  0.095961831  0.034355576 -5.1738128e-016 
     890            0   -11.064918   -9.2653026  -0.12141118            0    20.244749  0.095989505  0.034471344 -1.0338952e-015 
     900            0   -11.083538   -9.3091585  -0.12170927            0    20.244749  0.096017427  0.034588023 -5.1651391e-016 
     910            0   -11.102296   -9.3534218  -0.12200977            0    20.244749  0.096045601  0.034705625 -1.0325941e-015 
     920            0   -11.121196   -9.3980981  -0.12231272            0    20.244749  0.096074029   0.03482416 -1.0317268e-015 
     930            0   -11.140238   -9.4431932  -0.12261813            0    20.244749  0.096102716  0.034943641 -5.1564655e-016 
     940            0   -11.159424   -9.4887128  -0.12292605            0    20.244749  0.096131665  0.035064078 -1.0304257e-015 
     950            0   -11.178756    -9.534663   -0.1232365            0    20.244749  0.096160879  0.035185485 -1.0299921e-015 
     960            0   -11.198237   -9.5810498  -0.12354952            0    20.244749  0.096190362  0.035307873 -1.0291247e-015 
     970            0   -11.217867   -9.6278793  -0.12386514            0    20.244749  0.096220117  0.035431256 -5.1434551e-016 
     980            0    -11.23765   -9.6751579  -0.12418339            0    20.244749  0.096250147  0.035555644 -1.0278237e-015 
     990            0   -11.257586    -9.722892  -0.12450431            0    20.244749  0.096280458  0.035681052 -1.0269563e-015 
    1000            0   -11.277678    -9.771088  -0.12482794            0    20.244749  0.096311051  0.035807493 -1.0265226e-015 
    1010            0   -11.297927   -9.8197526   -0.1251543            0    20.244749  0.096341932  0.035934979 -5.1304447e-016 
    1020            0   -11.318337   -9.8688927  -0.12548344            0    20.244749  0.096373104  0.036063524 -1.0252216e-015 
    1030            0   -11.338909   -9.9185151  -0.12581539            0    20.244749  0.096404572  0.036193143 -5.1217711e-016 
    1040            0   -11.359644   -9.9686268  -0.12615019            0    20.244749  0.096436338  0.036323849 -1.0239205e-015 
    1050            0   -11.380546   -10.019235  -0.12648787            0    20.244749  0.096468408  0.036455657 -1.0230532e-015 
    1060            0   -11.401617   -10.070347  -0.12682848            0    20.244749  0.096500786  0.036588581 -1.0221858e-015 
    1070            0   -11.422858   -10.121971  -0.12717206            0    20.244749  0.096533475  0.036722635 -1.0217521e-015 
    1080            0   -11.444272   -10.174113  -0.12751864            0    20.244749   0.09656648  0.036857836 -1.0208848e-015 
    1090            0   -11.465862   -10.226782  -0.12786827            0    20.244749  0.096599806  0.036994198 -1.0204511e-015 
    1100            0   -11.487629   -10.279985  -0.12822099            0    20.244749  0.096633458  0.037131737 -1.0195837e-015 
    1110            0   -11.509577   -10.333732  -0.12857684            0    20.244749  0.096667439  0.037270469 -1.0187164e-015 
    1120            0   -11.531707   -10.388029  -0.12893586            0    20.244749  0.096701755   0.03741041 -5.0914134e-016 
    1130            0   -11.554023   -10.442885   -0.1292981            0    20.244749   0.09673641  0.037551577 -5.0870766e-016 
    1140            0   -11.599289   -10.498301  -0.12966354            0     20.24475  0.096833919  0.037693967 -1.016548e-015 
    1150            0   -11.677944    -10.55423  -0.13003185            0    20.244753  0.097022661  0.037837454 -1.0161143e-015 
    1160            0   -11.739289    -10.61066  -0.13040297            0    20.244755  0.097163439  0.037982002 -1.0152469e-015 
    1170            0   -11.816865   -10.667607  -0.13077697            0    20.244758  0.097348154  0.038127649 -5.0740662e-016 
    1180            0   -11.881608   -10.725073  -0.13115389            0     20.24476  0.097497265  0.038274394 -1.0139459e-015 
    1190            0    -11.96116   -10.783071  -0.13153376            0    20.244763  0.097686279  0.038422264 -1.0130785e-015 
    1200            0    -12.02618   -10.841605  -0.13191664            0    20.244766  0.097835148  0.038571268 -1.0122111e-015 
    1210            0   -12.113734   -10.900688  -0.13230257            0    20.244769    0.0980448  0.038721433 -1.0117775e-015 
    1220            0   -12.175821   -10.960323  -0.13269158            0    20.244771  0.098184667  0.038872759 -1.0109101e-015 
    1230            0   -12.263855   -11.020525  -0.13308374            0    20.244774  0.098394412  0.039025286 -1.0100427e-015 
    1240            0   -12.330397   -11.081298  -0.13347908            0    20.244776  0.098545327  0.039179009 -1.0096091e-015 
    1250            0   -12.415109   -11.142657  -0.13387767            0     20.24478  0.098744852  0.039333968 -5.0437085e-016 
    1260            0   -12.483405   -11.204606  -0.13427955            0    20.244782   0.09889944  0.039490165 -5.0393717e-016 
    1270            0   -12.575301   -11.267162  -0.13468477            0    20.244785  0.099117109  0.039647637 -5.0350349e-016 
    1280            0   -12.643935   -11.330326  -0.13509338            0    20.244787  0.099271488  0.039806382 -5.0306981e-016 
    1290            0   -12.731218   -11.394117  -0.13550545            0    20.244791  0.099475452  0.039966442 -1.0057059e-015 
    1300            0   -12.805314   -11.458541  -0.13592103            0    20.244793   0.09964337  0.040127824 -1.0048386e-015 
    1310            0   -12.897103   -11.523612  -0.13634018            0    20.244797  0.099858115  0.040290561 -1.0039712e-015 
    1320            0   -12.969639   -11.589337  -0.13676294            0    20.244799   0.10002066  0.040454661 -1.0035375e-015 
    1330            0   -13.067693   -11.655735  -0.13718941            0    20.244803   0.10025078  0.040620166 -1.0026702e-015 
    1340            0    -13.14029   -11.722808  -0.13761961            0    20.244805   0.10041226  0.040787077 -5.009014e-016 
    1350            0   -13.235904   -11.790578  -0.13805363            0    20.244808   0.10063446  0.040955439 -1.0009354e-015 
    1360            0   -13.312389   -11.859051  -0.13849153            0    20.244811   0.10080505  0.041125261 -1.0005018e-015 
    1370            0   -13.413053   -11.928246  -0.13893339            0    20.244815   0.10103921  0.041296584 -9.996344e-016 
    1380            0   -13.490401   -11.998168  -0.13937925            0    20.244817   0.10121078  0.041469416 -9.9876704e-016 
    1390            0    -13.59015   -12.068841  -0.13982922            0    20.244821   0.10144101  0.041643803 -9.9789968e-016 
    1400            0   -13.669474    -12.14027  -0.14028335            0    20.244823   0.10161648  0.041819755 -4.98733e-016 
    1410            0   -13.775971   -12.212479  -0.14074173            0    20.244827   0.10186298  0.041997321 -9.9659864e-016 
    1420            0    -13.85705   -12.285472  -0.14120441            0     20.24483   0.10204168  0.042176506 -9.9573128e-016 
    1430            0   -13.961775   -12.359276  -0.14167152            0    20.244833   0.10228189  0.042357365 -9.9486391e-016 
    1440            0   -14.044916   -12.433897   -0.1421431            0    20.244836   0.10246458  0.042539907 -9.9399655e-016 
    1450            0    -14.15597   -12.509362  -0.14261927            0     20.24484   0.10271973  0.042724189 -9.9312919e-016 
    1460            0   -14.240783   -12.585676  -0.14310008            0    20.244843   0.10290531  0.042910216 -9.9226183e-016 
    1470            0     -14.3512   -12.662869  -0.14358567            0    20.244847   0.10315706   0.04309805 -4.9569723e-016 
    1480            0    -14.43808   -12.740948  -0.14407609            0     20.24485   0.10334651  0.043287701 -4.9526355e-016 
    1490            0   -14.554718   -12.819943  -0.14457147            0    20.244854   0.10361269  0.043479233 -9.9009342e-016 
    1500            0   -14.643321   -12.899862  -0.14507189            0    20.244856   0.10380502  0.043672654 -9.8922606e-016 
    1510            0   -14.760005   -12.980736  -0.14557747            0    20.244861   0.10406945  0.043868033 -9.883587e-016 
    1520            0    -14.85143   -13.062576  -0.14608831            0    20.244864   0.10426744  0.044065382 -9.8749134e-016 
    1530            0   -14.973558   -13.145414  -0.14660453            0    20.244868   0.10454405  0.044264773 -9.8662398e-016 
    1540            0   -15.067222    -13.22926  -0.14712623            0    20.244871    0.1047461  0.044466216 -9.8575662e-016 
    1550            0   -15.190625    -13.31415  -0.14765355            0    20.244875   0.10502398   0.04466979 -9.8488925e-016 
    1560            0   -15.286856   -13.400096  -0.14818659            0    20.244878   0.10523085  0.044875508 -9.8402189e-016 
    1570            0   -15.415015   -13.487135  -0.14872552            0    20.244883   0.10551887  0.045083452 -4.9179411e-016 
    1580            0    -15.51363   -13.575279  -0.14927041            0    20.244886      0.10573  0.045293638 -4.9136042e-016 
    1590            0   -15.644544    -13.66457  -0.14982147            0     20.24489   0.10602289  0.045506152 -9.8141981e-016 
    1600            0   -15.746203   -13.755021  -0.15037878            0    20.244894   0.10623986  0.045721012 -4.9049306e-016 
    1610            0   -14.952307   -13.846443  -0.15094171            0    20.244852   0.10417184  0.045937719 -9.7968508e-016 
    1620            0   -149.34075   -15.172492  -0.15840378            0    20.251327   0.43813711  0.049042815 -9.679757e-016 
    1630            0    -2.300407   -16.744456  -0.16832504            0    20.244203  0.072423073  0.052608023 -9.5539895e-016 
    1640            0   -21.734416   -17.631333  -0.17348249            0    20.245098   0.11912677  0.054580933 -9.4846006e-016 
    1650            0   -21.811392   -17.803299  -0.17447603            0    20.245098    0.1192252  0.054959893 -9.475927e-016 
    1660            0   -21.889556   -17.978534  -0.17548599            0    20.245098   0.11932544  0.055344955 -9.4629166e-016 
    1670            0    -21.96894   -18.157131   -0.1765128            0    20.245098   0.11942755  0.055736273 -9.4499061e-016 
    1680            0   -22.049573   -18.339185  -0.17755687            0    20.245098   0.11953155  0.056134005 -4.7184479e-016 
    1690            0   -22.158926   -19.245602  -0.18362899            0    20.245098   0.11968274  0.058948989 -4.7097758e-016 
    1700            0   -24.640688   -19.442085  -0.18474429            0    20.245207   0.12541339  0.059378426 -4.7010991e-016 
    1710            0   -24.731043   -19.640884  -0.18587189            0    20.245207   0.12552252  0.059811501 -9.3935277e-016 
    1720            0   -24.822854   -19.843668  -0.18701916            0    20.245207   0.12563374  0.060251945 -9.3805178e-016 
    1730            0    -24.91616   -20.050558  -0.18818663            0    20.245207   0.12574713  0.060699957 -9.3675067e-016 
    1740            0   -26.679543   -21.499602  -0.19785109            0    20.245278   0.12963678  0.063805096 -9.3414852e-016 
    1750            0    -26.78498   -21.736876  -0.19917617            0    20.245278   0.12976079  0.064307613 -9.3284747e-016 
    1760            0   -26.892253   -21.979306   -0.2005263            0    20.245278   0.12988737  0.064819402 -9.3154631e-016 
    1770            0   -27.001414   -22.227058  -0.20190222            0    20.245278    0.1300166  0.065340735 -9.302453e-016 
    1780            0   -27.228555   -22.480301  -0.20330456            0    20.245284   0.13041441  0.065871883 -9.2851111e-016 
    1790            0   -27.514471   -22.738584  -0.20473069            0    20.245291   0.13094338  0.066411816 -9.2720965e-016 
    1800            0    -27.93186   -23.001899  -0.20618031            0    20.245305   0.13176787  0.066960443 -9.2590882e-016 
    1810            0   -28.250301   -23.270353  -0.20765405            0    20.245313   0.13236206   0.06751789 -9.241738e-016 
    1820            0   -28.682647    -23.54418   -0.2091528            0    20.245327   0.13320962  0.068084576 -4.6143649e-016 
    1830            0   -29.019262   -23.823498  -0.21067721            0    20.245336   0.13383525  0.068660644 -9.2157198e-016 
    1840            0   -29.440263   -24.108559  -0.21222828            0    20.245349   0.13464592  0.069246537 -9.1983716e-016 
    1850            0   -29.817035   -24.399529  -0.21380683            0     20.24536   0.13535152  0.069842493 -9.1853623e-016 
    1860            0   -30.268619   -24.696656  -0.21541385            0    20.245374   0.13621888  0.070448932 -9.1723492e-016 
    1870            0   -30.794049   -25.875566  -0.22309019            0    20.245385   0.13728507  0.073391332 -9.1506667e-016 
    1880            0   -33.193349   -26.204295  -0.22485294            0    20.245482   0.14249187  0.074056672 -9.1333208e-016 
    1890            0   -33.347019   -26.540062  -0.22665011            0    20.245482   0.14266362    0.0747336 -9.1203078e-016 
    1900            0   -33.503826   -26.884395  -0.22848723            0    20.245482   0.14283948  0.075425213 -9.1029583e-016 
    1910            0    -33.66388   -27.237625  -0.23036571            0    20.245482   0.14301963  0.076132019 -9.0899533e-016 
    1920            0   -34.134788   -27.599963  -0.23228599            0    20.245495   0.14387653  0.076854305 -9.0726036e-016 
    1930            0   -34.718381   -27.971434  -0.23424803            0    20.245513   0.14497132   0.07759194 -9.0552539e-016 
    1940            0    -35.18097   -28.352368  -0.23625345            0    20.245525   0.14579404  0.078345399 -9.0379065e-016 
    1950            0   -35.806921   -28.743337  -0.23830455            0    20.245544   0.14696235  0.079115654 -9.0205615e-016 
    1960            0   -36.296336   -29.144704  -0.24040312            0    20.245557   0.14782611  0.079903211 -9.0075546e-016 
    1970            0   -36.955418   -29.557129  -0.24255184            0    20.245576   0.14904564  0.080709191 -8.9902014e-016 
    1980            0   -37.475712   -29.981045   -0.2447528            0     20.24559   0.14995715  0.081534201 -8.9728587e-016 
    1990            0   -35.504091   -30.415859    -0.247005            0      20.2455   0.14555242  0.082376712 -8.9555089e-016 
    2000            0   -500.40259   -35.064278  -0.26697626            0    20.264074    1.1014629  0.092220599 -1.3201275e-015 
    2010            0   -85.284267    -39.09389  -0.29149502            0    20.247293    0.2426883  0.099622786 -1.7347237e-015 
    2020            0   -85.810058   -39.836308   -0.2951058            0    20.247293   0.24304225   0.10096741 -1.7301697e-015 
    2030            0   -86.351089   -40.607229  -0.29883758            0    20.247293   0.24340872   0.10235587 -8.6280849e-016 
    2040            0   -86.908194   -41.408324  -0.30269686            0    20.247293   0.24378906   0.10379047 -3.0121305e-015 
    2050            0   -87.482207   -42.241394   -0.3066906            0    20.247293   0.24418403   0.10527368 -4.720616e-015 
    2060            0   -88.074023   -43.108388  -0.31082632            0    20.247293   0.24459449   0.10680817 -5.9915189e-015 
    2070            0   -88.684608   -44.011417  -0.31511209            0    20.247293   0.24502132   0.10839678 -5.5478632e-015 
    2080            0   -89.314999   -44.952769  -0.31955665            0    20.247293    0.2454655   0.11004261 -5.5320326e-015 
    2090            0   -89.966321   -45.934932  -0.32416944            0    20.247293    0.2459281   0.11174897 -4.6672736e-015 
    2100            0   -90.639786   -46.960614  -0.32896068            0    20.247293   0.24641024   0.11351946 -4.2303415e-015 
    2110            0   -91.336712   -48.032766  -0.33394146            0    20.247293   0.24691318   0.11535798 -4.2173301e-015 
    2120            0   -92.058527   -49.154614  -0.33912383            0    20.247293   0.24743826   0.11726876 -3.783648e-015 
    2130            0   -92.806784   -50.329689  -0.34452092            0    20.247293   0.24798696    0.1192564 -3.3525698e-015 
    2140            0   -93.583179   -51.561866  -0.35014705            0    20.247293   0.24856088   0.12132591 -3.7591454e-015 
    2150            0   -94.389562   -52.855405  -0.35601787            0    20.247293   0.24916179   0.12348275 -3.3302348e-015 
    2160            0    -95.41908   -54.548945  -0.36432504            0    20.247293    0.2508495   0.12760702 -3.3180924e-015 
    2170            0   -96.302665   -55.996986    -0.370818            0    20.247293   0.25153887   0.13000119 -2.8928678e-015 
    2180            0    -97.22371   -57.523432  -0.37761805            0    20.247293   0.25226319   0.13250502 -2.8822437e-015 
    2190            0   -98.185002   -59.134824  -0.38474869            0    20.247293   0.25302524    0.1351267 -2.8713998e-015 
    2200            0   -98.007467   -60.836558  -0.39223022            0    20.247253   0.25173151    0.1378721 -2.860343e-015 
    2210            0   -96.308857   -62.630586  -0.40006536            0    20.247159   0.24775971   0.14074142 -2.4420574e-015 
    2220            0   -95.323374   -64.526989  -0.40828625            0     20.24709   0.24507526   0.14374781 -2.4320823e-015 
    2230            0   -93.179542   -66.535443  -0.41693074            0    20.246981   0.24040794   0.14690288 -2.0181341e-015 
    2240            0   -124.81787   -68.814089   -0.4265856            0    20.247996   0.29370088    0.1504512 -2.4106158e-015 
    2250            0    25.418196   -83.804271  -0.48883259            0    20.242969   0.04103797    0.1729396 -1.9550335e-015 
    2260            0    262.01586   -96.829479  -0.53970418            0    20.235793  -0.32353584   0.19148269 -1.5332785e-015 
    2270            0    264.90927   -101.70839  -0.55868475            0    20.235793  -0.32146848   0.19823658 -1.522654e-015 
    2280            0    264.73962   -107.07404   -0.5793331            0    20.235887  -0.31435708   0.20555024 -1.1338594e-015 
    2290            0    262.62569   -112.92913  -0.60159981            0    20.236037  -0.30413203   0.21340292 -1.5007522e-015 
    2300            0    257.34832   -119.32875  -0.62564671            0    20.236276  -0.28912658   0.22184285 -1.1167301e-015 
    2310            0     253.7302   -126.36905  -0.65174068            0    20.236463  -0.27651015   0.23096577 -7.3855627e-016 
    2320            0    245.71147   -134.15881  -0.68024432            0    20.236769  -0.25750359   0.24087639 -7.3227025e-016 
    2330            0    240.54943   -142.86424   -0.7116281            0    20.236991  -0.24252797   0.25173897 -1.0887559e-015 
    2340            0     227.5501    -152.6735  -0.74650918            0    20.237415  -0.21663694   0.26373087 -7.1904139e-016 
    2350            0    783.25945   -204.90713  -0.91949834            0    20.224146  -0.88194241   0.32376893 -1.0341044e-015 
    2360            0    505.35213   -225.43169  -0.98966015            0    20.231164  -0.51199154   0.34599639 -1.0197994e-015 
    2370            0    516.74213   -249.98607   -1.0682885            0    20.231164   -0.5030667   0.37165457 -1.0044043e-015 
    2380            0    529.20157    -283.9098   -1.1758941            0    20.231164  -0.49208727   0.40688273 -6.5832666e-016 
    2390            0    563.40811   -328.04255   -1.3112612            0    20.230753  -0.49817988   0.44992699 -6.4466642e-016 
    2400            0    134.55431   -395.31336   -1.5134109            0    20.239806 -0.0071712256   0.51082499 -6.2645161e-016 
    2410            0    1013.9524   -532.50692   -1.9023927            0    20.223455  -0.80827062   0.62412188 -2.9880218e-016 
    2420            0    1313.5278   -688.43636   -2.3398513            0    20.219319  -0.97529519   0.74238384 -5.7397355e-016 
    2430            0    3270.4527   -926.75237    -3.006343            0    20.191708   -2.3400325   0.88770131 -5.4187951e-016 
    2440            0    5181.9473   -1186.1063   -4.4255139            0    20.176004   -2.9913112   0.91042275 -4.8875014e-016 
    2450            0    325.02778   -506.30013   -5.1906712            0    20.234565   0.17665444   0.29466623 -4.5601367e-016 
    2459            0  -0.63772171 -0.018706623   -5.2626469            0     20.23812   0.37763367 -0.068973379 -4.4732826e-016 
ERROR: Bond/angle/dihedral extent > half of periodic box length (domain.cpp:580)
