
    3816 atoms
    2400 bonds
    1200 angles
       4 atom types
       1 bond types
       1 angle types

      0.0000     30.0000 xlo xhi
      0.0000     30.0000 ylo yhi
      0.0000     60.0000 zlo zhi

 Masses

 1  1.007940
 2 15.999400
 3 22.989771
 4 35.452999

Atoms

       1       1       2     -0.8476      3.9680     10.3820     16.3040
       2       1       1      0.4238      3.5240     10.7510     15.5010
       3       1       1      0.4238      3.3920     10.6790     17.0270
       4       2       2     -0.8476      6.3330      5.1760     21.2910
       5       2       1      0.4238      6.3780      5.5240     22.1980
       6       2       1      0.4238      6.8920      4.3880     21.3610
       7       3       2     -0.8476      4.8690      4.2600     30.2870
       8       3       1      0.4238      4.2590      3.4600     30.3800
       9       3       1      0.4238      4.2950      4.9550     29.8220
      10       4       2     -0.8476      1.2750     14.3070     38.9670
      11       4       1      0.4238      1.4370     13.5630     38.3660
      12       4       1      0.4238      0.9190     13.8390     39.7600
      13       5       2     -0.8476      6.6870      0.6740     51.2560
      14       5       1      0.4238      6.6060      0.4000     50.3240
      15       5       1      0.4238      7.4560      1.3260     51.1740
      16       6       2     -0.8476      1.2240      4.5490     50.6310
      17       6       1      0.4238      1.6530      4.0140     51.3910
      18       6       1      0.4238      0.9600      5.3860     51.1170
      19       7       2     -0.8476      6.8360      3.3420     56.7930
      20       7       1      0.4238      7.2230      2.8440     56.0060
      21       7       1      0.4238      7.5150      4.0660     56.9850
      22       8       2     -0.8476      5.4860     16.9960     12.4720
      23       8       1      0.4238      6.3830     17.2790     12.2160
      24       8       1      0.4238      5.6370     16.1320     12.8900
      25       9       2     -0.8476     14.7370      6.0940     30.9560
      26       9       1      0.4238     13.8240      5.6190     30.9320
      27       9       1      0.4238     15.2840      5.4130     31.3730
      28      10       2     -0.8476      8.6240     14.1110     21.7320
      29      10       1      0.4238      8.9330     13.6480     22.5120
      30      10       1      0.4238      8.8060     13.4160     21.0450
      31      11       2     -0.8476     11.7620     26.3260     31.7730
      32      11       1      0.4238     11.6860     26.9950     32.4760
      33      11       1      0.4238     10.9190     26.3800     31.3360
      34      12       2     -0.8476      8.7370      2.4690     52.0510
      35      12       1      0.4238      9.3390      2.7000     51.2930
      36      12       1      0.4238      8.5710      3.2120     52.5440
      37      13       2     -0.8476      4.0860     16.6180      1.7100
      38      13       1      0.4238      4.0810     15.6880      1.5960
      39      13       1      0.4238      4.8280     16.8800      1.1810
      40      14       2     -0.8476     16.4260     15.0010      4.9770
      41      14       1      0.4238     16.3700     14.5720      4.1260
      42      14       1      0.4238     17.1050     15.7540      4.8450
      43      15       2     -0.8476      4.2350     16.4950     22.5090
      44      15       1      0.4238      5.1700     16.3340     22.3850
      45      15       1      0.4238      3.9550     15.6670     22.9810
      46      16       2     -0.8476      3.2910     11.4620     28.2600
      47      16       1      0.4238      3.8940     11.2680     27.5290
      48      16       1      0.4238      2.7140     12.0750     27.8300
      49      17       2     -0.8476      4.5400      7.3370     27.4810
      50      17       1      0.4238      4.9560      8.1310     27.0580
      51      17       1      0.4238      4.0860      7.7280     28.2120
      52      18       2     -0.8476      7.4720      7.2990     38.9810
      53      18       1      0.4238      7.3400      7.8500     39.7270
      54      18       1      0.4238      6.5440      7.0560     38.6630
      55      19       2     -0.8476     10.9740      9.2090      5.3860
      56      19       1      0.4238     11.2980      9.1710      6.3320
      57      19       1      0.4238     10.0480      9.5700      5.4750
      58      20       2     -0.8476     10.1820      9.4560     15.3160
      59      20       1      0.4238      9.8740     10.0530     15.9970
      60      20       1      0.4238     10.3210      8.5640     15.6890
      61      21       2     -0.8476      8.2640      6.4070     29.8530
      62      21       1      0.4238      8.5420      5.5060     29.9990
      63      21       1      0.4238      8.7220      6.8450     30.6370
      64      22       2     -0.8476     24.4770     14.5710     38.5260
      65      22       1      0.4238     23.8340     14.2420     37.8590
      66      22       1      0.4238     25.3620     14.3820     38.0820
      67      23       2     -0.8476      6.6160      5.5880     27.8950
      68      23       1      0.4238      6.9400      5.9310     28.7630
      69      23       1      0.4238      5.8630      6.1520     27.6800
      70      24       2     -0.8476      2.6780     16.5550     52.6000
      71      24       1      0.4238      2.6030     15.5730     52.6650
      72      24       1      0.4238      3.0020     16.7730     53.5430
      73      25       2     -0.8476      5.1210     20.9030     11.6390
      74      25       1      0.4238      5.7660     21.0820     12.3630
      75      25       1      0.4238      5.6840     21.2140     10.8560
      76      26       2     -0.8476     15.3220     21.1550     13.2310
      77      26       1      0.4238     14.5220     21.1090     13.6920
      78      26       1      0.4238     14.9730     21.3570     12.3180
      79      27       2     -0.8476      0.7850     15.4370     22.8760
      80      27       1      0.4238      0.9440     15.7250     23.7490
      81      27       1      0.4238      0.6120     16.2610     22.3750
      82      28       2     -0.8476     13.4430     14.0950     33.8790
      83      28       1      0.4238     13.2310     13.8530     34.7560
      84      28       1      0.4238     13.8230     14.9620     33.9190
      85      29       2     -0.8476     12.7210     20.8950     31.7430
      86      29       1      0.4238     12.6300     20.9210     32.7030
      87      29       1      0.4238     12.5810     21.8260     31.4630
      88      30       2     -0.8476     10.2550     17.9330     41.6070
      89      30       1      0.4238      9.3410     18.1610     41.7670
      90      30       1      0.4238     10.5050     17.2630     42.3480
      91      31       2     -0.8476      7.5420     27.1200     56.6850
      92      31       1      0.4238      7.3090     26.3520     56.1450
      93      31       1      0.4238      7.1230     27.8490     56.1220
      94      32       2     -0.8476      5.9080     24.2180     13.3590
      95      32       1      0.4238      5.1400     23.9220     12.9450
      96      32       1      0.4238      6.3370     24.6360     12.6080
      97      33       2     -0.8476     10.7260      7.9040      2.8040
      98      33       1      0.4238     11.0610      8.7010      2.3940
      99      33       1      0.4238     10.5480      8.1890      3.7080
     100      34       2     -0.8476      8.8690     25.9840     12.6110
     101      34       1      0.4238      9.4230     25.8420     13.4150
     102      34       1      0.4238      9.1050     26.8950     12.3270
     103      35       2     -0.8476      4.5690     23.0520     16.6650
     104      35       1      0.4238      4.4490     23.9800     16.2880
     105      35       1      0.4238      5.3610     23.0960     17.1760
     106      36       2     -0.8476      3.8990     13.9890     23.9830
     107      36       1      0.4238      3.7300     13.1760     24.4620
     108      36       1      0.4238      4.8610     14.0690     24.0610
     109      37       2     -0.8476     20.2520      2.2610     26.5640
     110      37       1      0.4238     20.7140      1.3790     26.4790
     111      37       1      0.4238     20.9670      2.9530     26.4130
     112      38       2     -0.8476      4.3780     21.1040     50.6660
     113      38       1      0.4238      4.8020     21.4090     51.4610
     114      38       1      0.4238      3.6930     20.3890     50.9980
     115      39       2     -0.8476     23.8170     11.3390     43.1840
     116      39       1      0.4238     22.9870     10.8720     43.2940
     117      39       1      0.4238     24.3100     10.8060     43.7610
     118      40       2     -0.8476     14.3130     11.9750     59.0380
     119      40       1      0.4238     15.0500     11.3440     59.1750
     120      40       1      0.4238     13.5530     11.3570     59.0950
     121      41       2     -0.8476     22.8720      6.5420      3.8780
     122      41       1      0.4238     22.0050      6.1450      4.2300
     123      41       1      0.4238     23.2510      5.9590      3.2580
     124      42       2     -0.8476     11.2260      5.6650      1.4180
     125      42       1      0.4238     11.4380      5.0690      2.1540
     126      42       1      0.4238     10.9570      6.5120      1.8930
     127      43       2     -0.8476      8.6810     17.6190     23.6750
     128      43       1      0.4238      7.8160     17.6400     24.0950
     129      43       1      0.4238      8.7310     18.5630     23.4090
     130      44       2     -0.8476      1.9700     15.9750     29.5660
     131      44       1      0.4238      2.4200     16.2500     30.3740
     132      44       1      0.4238      1.0630     15.8170     29.8680
     133      45       2     -0.8476     16.7700     28.3890      2.5810
     134      45       1      0.4238     17.1540     27.5300      2.8990
     135      45       1      0.4238     15.8330     28.1560      2.4880
     136      46       2     -0.8476      6.3210      7.7840     57.5090
     137      46       1      0.4238      5.9650      8.2620     58.2780
     138      46       1      0.4238      6.4570      8.4080     56.8700
     139      47       2     -0.8476      1.1020     25.3840      5.9230
     140      47       1      0.4238      0.8790     26.3650      5.9050
     141      47       1      0.4238      2.0950     25.4630      5.8450
     142      48       2     -0.8476      9.1920     13.2770      5.7210
     143      48       1      0.4238      8.4190     12.7780      5.8430
     144      48       1      0.4238      9.6420     12.8570      4.9360
     145      49       2     -0.8476      3.0080     21.2690     24.9040
     146      49       1      0.4238      2.8890     21.2450     23.9560
     147      49       1      0.4238      3.4230     22.1350     24.9490
     148      50       2     -0.8476      2.7280     13.0310     30.8870
     149      50       1      0.4238      3.0190     12.3730     30.2300
     150      50       1      0.4238      2.8820     13.8420     30.4080
     151      51       2     -0.8476     14.0730     17.8960     47.5140
     152      51       1      0.4238     13.1290     18.0240     47.6240
     153      51       1      0.4238     14.3430     17.4480     48.3750
     154      52       2     -0.8476      3.7930      8.3080     54.2080
     155      52       1      0.4238      4.7390      8.6430     54.0810
     156      52       1      0.4238      3.2420      9.0410     53.8590
     157      53       2     -0.8476      2.4740     18.7680      2.6120
     158      53       1      0.4238      2.9320     17.9280      2.6030
     159      53       1      0.4238      3.2310     19.4200      2.6810
     160      54       2     -0.8476      5.3480      9.3460     36.9780
     161      54       1      0.4238      5.3640     10.1890     37.4590
     162      54       1      0.4238      4.9220      9.5240     36.1430
     163      55       2     -0.8476     12.6900     27.6070     37.7600
     164      55       1      0.4238     12.1450     28.4130     37.6930
     165      55       1      0.4238     12.3450     27.2200     38.5750
     166      56       2     -0.8476     19.1700     21.7600     29.3710
     167      56       1      0.4238     18.2030     21.5880     29.1210
     168      56       1      0.4238     19.3740     20.9910     29.9910
     169      57       2     -0.8476      2.4290     21.7400     46.0200
     170      57       1      0.4238      2.8290     22.5830     46.3110
     171      57       1      0.4238      1.6900     21.7090     46.6340
     172      58       2     -0.8476     12.5650     22.1850     52.2860
     173      58       1      0.4238     12.9530     21.4270     51.7690
     174      58       1      0.4238     13.2640     22.8470     52.2650
     175      59       2     -0.8476     13.9120     17.9800     19.0220
     176      59       1      0.4238     14.0440     17.7140     19.9080
     177      59       1      0.4238     14.8260     18.1310     18.7470
     178      60       2     -0.8476      1.5870     24.4320     24.1370
     179      60       1      0.4238      1.5350     24.2240     25.1310
     180      60       1      0.4238      2.3880     25.0090     24.0390
     181      61       2     -0.8476      1.7370     24.5900     54.8550
     182      61       1      0.4238      0.9760     24.9660     54.3280
     183      61       1      0.4238      2.3470     24.4160     54.1930
     184      62       2     -0.8476      4.9980      5.3690     57.7460
     185      62       1      0.4238      5.6540      4.6280     57.5880
     186      62       1      0.4238      5.5470      6.1340     57.9500
     187      63       2     -0.8476      9.6390      7.0380     32.3010
     188      63       1      0.4238      9.2040      7.5360     33.0340
     189      63       1      0.4238      9.7040      6.1380     32.6220
     190      64       2     -0.8476     15.7140      6.8690      2.9010
     191      64       1      0.4238     16.5240      7.1580      2.5280
     192      64       1      0.4238     15.1080      7.0000      2.0710
     193      65       2     -0.8476      7.8710      4.0980     34.4950
     194      65       1      0.4238      7.2660      4.7040     33.8940
     195      65       1      0.4238      7.7460      4.3950     35.4280
     196      66       2     -0.8476     12.0960     26.4220     50.6880
     197      66       1      0.4238     12.1630     26.5910     49.7630
     198      66       1      0.4238     11.3190     25.8070     50.7340
     199      67       2     -0.8476     10.2350     13.1760     10.5910
     200      67       1      0.4238     10.0090     12.3980     10.0340
     201      67       1      0.4238      9.7720     13.0660     11.4180
     202      68       2     -0.8476      7.3600      2.3740     20.2300
     203      68       1      0.4238      7.9500      1.9190     20.9280
     204      68       1      0.4238      6.4480      2.0960     20.4350
     205      69       2     -0.8476     10.2570     15.0800     49.1330
     206      69       1      0.4238     10.3580     14.4750     48.3720
     207      69       1      0.4238      9.4070     15.4960     48.9180
     208      70       2     -0.8476      2.2240      3.2770     52.9630
     209      70       1      0.4238      2.2630      3.7980     53.7790
     210      70       1      0.4238      1.8330      2.4260     53.2610
     211      71       2     -0.8476     14.1910      2.2190      3.3920
     212      71       1      0.4238     14.4980      2.9810      3.8220
     213      71       1      0.4238     13.5120      1.8770      3.9780
     214      72       2     -0.8476      9.1230     10.8810      9.2270
     215      72       1      0.4238      8.4830     11.0530      8.5480
     216      72       1      0.4238      8.6890     10.3610      9.9340
     217      73       2     -0.8476      8.6690     17.4580     48.8360
     218      73       1      0.4238      8.2830     17.3210     47.9750
     219      73       1      0.4238      8.0640     18.1880     49.1850
     220      74       2     -0.8476     10.5820      0.9400      2.4530
     221      74       1      0.4238     10.6670      1.2590      3.4160
     222      74       1      0.4238     10.0430      1.6230      2.0670
     223      75       2     -0.8476      4.9180      8.4250      8.1770
     224      75       1      0.4238      5.7050      8.2190      8.7140
     225      75       1      0.4238      4.3020      8.7580      8.8220
     226      76       2     -0.8476      3.7030      4.9870     10.2150
     227      76       1      0.4238      3.4090      5.5720      9.4970
     228      76       1      0.4238      4.1170      4.2730      9.7270
     229      77       2     -0.8476      3.5760      7.7650     19.7250
     230      77       1      0.4238      3.0720      7.2910     20.3640
     231      77       1      0.4238      3.9040      8.5880     20.1530
     232      78       2     -0.8476      3.1910      5.3440     33.0130
     233      78       1      0.4238      2.5600      4.8200     33.5500
     234      78       1      0.4238      2.6030      5.8100     32.4200
     235      79       2     -0.8476     10.0000     13.3930     46.8440
     236      79       1      0.4238     10.8120     13.4550     46.4120
     237      79       1      0.4238     10.0810     12.4930     47.1550
     238      80       2     -0.8476      1.0370     18.2020     37.4900
     239      80       1      0.4238      0.7590     19.0920     37.7520
     240      80       1      0.4238      1.1660     18.2490     36.5470
     241      81       2     -0.8476     10.2780      8.1750     25.3480
     242      81       1      0.4238      9.8890      7.9260     26.2450
     243      81       1      0.4238     10.7360      8.9560     25.5870
     244      82       2     -0.8476     20.7750     18.4620     54.1360
     245      82       1      0.4238     20.7420     19.4840     53.9420
     246      82       1      0.4238     20.1410     18.0570     53.5130
     247      83       2     -0.8476     10.2270      4.4850     33.2050
     248      83       1      0.4238      9.3560      4.2350     33.6020
     249      83       1      0.4238     10.6600      3.6250     33.0650
     250      84       2     -0.8476     21.0650     16.5180     48.7720
     251      84       1      0.4238     21.1220     16.4580     47.7900
     252      84       1      0.4238     21.8950     16.1570     49.0990
     253      85       2     -0.8476      1.1970      4.7740     55.1190
     254      85       1      0.4238      1.6220      5.6430     55.1520
     255      85       1      0.4238      0.4900      4.8760     55.7440
     256      86       2     -0.8476      3.4190     10.6250     13.5580
     257      86       1      0.4238      3.8980     11.2000     12.9120
     258      86       1      0.4238      3.7400      9.7300     13.3620
     259      87       2     -0.8476      2.6780      6.1060     16.6530
     260      87       1      0.4238      2.4570      6.4610     17.4990
     261      87       1      0.4238      3.6010      6.3320     16.5260
     262      88       2     -0.8476      6.6820     22.5710      2.7190
     263      88       1      0.4238      5.8500     22.3350      2.2470
     264      88       1      0.4238      7.1590     21.7720      2.5920
     265      89       2     -0.8476      4.3170      4.2050     19.8180
     266      89       1      0.4238      3.4420      4.3420     19.5320
     267      89       1      0.4238      4.8820      5.0270     19.6950
     268      90       2     -0.8476      2.6440     20.7720     22.0310
     269      90       1      0.4238      3.2320     21.1210     21.3450
     270      90       1      0.4238      1.7670     20.8480     21.5380
     271      91       2     -0.8476     20.9130     13.9160     11.4660
     272      91       1      0.4238     21.0390     14.2590     10.6180
     273      91       1      0.4238     19.9190     14.1160     11.6500
     274      92       2     -0.8476     11.7920      5.8480     35.2460
     275      92       1      0.4238     11.4630      5.5040     34.4400
     276      92       1      0.4238     11.6860      6.7790     35.2590
     277      93       2     -0.8476      2.0870      9.8180     24.9150
     278      93       1      0.4238      2.4320      9.8750     24.0460
     279      93       1      0.4238      2.1600     10.7060     25.1870
     280      94       2     -0.8476      4.4270      2.1700     33.1610
     281      94       1      0.4238      4.1300      2.5720     32.3890
     282      94       1      0.4238      5.0300      2.8620     33.4980
     283      95       2     -0.8476     14.8260     10.8320     20.5370
     284      95       1      0.4238     14.4620     10.0330     20.9030
     285      95       1      0.4238     14.7660     10.7200     19.5940
     286      96       2     -0.8476     11.5810     12.7130     56.8530
     287      96       1      0.4238     11.6620     12.0190     57.5410
     288      96       1      0.4238     11.9580     12.2940     56.0490
     289      97       2     -0.8476      8.2650      5.7560     57.0780
     290      97       1      0.4238      8.6950      5.9110     57.8890
     291      97       1      0.4238      7.5850      6.4430     57.0770
     292      98       2     -0.8476     26.4240     16.8940     17.2070
     293      98       1      0.4238     27.2480     17.1640     17.6440
     294      98       1      0.4238     26.4370     17.3480     16.3000
     295      99       2     -0.8476      9.1760     28.7370      5.9790
     296      99       1      0.4238      9.5270     27.8770      5.7580
     297      99       1      0.4238      9.0900     28.6980      6.9330
     298     100       2     -0.8476     16.5830      7.6540     23.1810
     299     100       1      0.4238     15.9400      8.3580     22.8490
     300     100       1      0.4238     16.2730      6.8600     22.7790
     301     101       2     -0.8476     23.1720     18.7410     17.1880
     302     101       1      0.4238     22.5010     18.1640     16.7790
     303     101       1      0.4238     22.6350     19.2810     17.8250
     304     102       2     -0.8476     10.4050      1.1410     39.5110
     305     102       1      0.4238      9.7880      1.7500     39.0310
     306     102       1      0.4238     10.9320      1.7180     40.1050
     307     103       2     -0.8476      8.2470     20.9110     54.3680
     308     103       1      0.4238      8.0200     20.4930     55.1740
     309     103       1      0.4238      8.8440     21.6610     54.6490
     310     104       2     -0.8476      1.0420     20.9470     37.8240
     311     104       1      0.4238      0.4630     21.5020     37.2550
     312     104       1      0.4238      1.8320     20.7100     37.2370
     313     105       2     -0.8476      2.3070     13.5540     49.0530
     314     105       1      0.4238      1.9330     13.4330     48.1530
     315     105       1      0.4238      2.3820     14.5010     49.0550
     316     106       2     -0.8476      9.2690     17.3070     56.1180
     317     106       1      0.4238      9.9420     16.6470     56.0150
     318     106       1      0.4238      9.3130     17.4690     57.0580
     319     107       2     -0.8476     28.1490     10.1680     19.5730
     320     107       1      0.4238     27.4700     10.0200     20.2630
     321     107       1      0.4238     27.7030     10.7190     18.8890
     322     108       2     -0.8476      4.8520      1.6700     20.7300
     323     108       1      0.4238      4.5740      2.4940     20.3530
     324     108       1      0.4238      4.5350      1.1010     19.9710
     325     109       2     -0.8476      4.8940     25.5660     15.6000
     326     109       1      0.4238      3.9380     25.8000     15.5960
     327     109       1      0.4238      5.0580     25.1970     14.7120
     328     110       2     -0.8476     11.2660      0.7870     28.0640
     329     110       1      0.4238     11.1350      1.7230     27.8750
     330     110       1      0.4238     10.8580      0.3920     27.2830
     331     111       2     -0.8476      6.8800     13.2920     30.0910
     332     111       1      0.4238      6.7300     14.1860     30.3720
     333     111       1      0.4238      6.7290     12.7990     30.8810
     334     112       2     -0.8476      5.4600     14.0440      8.3540
     335     112       1      0.4238      6.3480     13.7220      8.6070
     336     112       1      0.4238      5.3080     14.7930      8.9280
     337     113       2     -0.8476      3.6480     27.3870     44.7690
     338     113       1      0.4238      4.1470     27.5550     45.6250
     339     113       1      0.4238      3.1130     26.6350     45.0610
     340     114       2     -0.8476     10.6900      6.6860     19.2280
     341     114       1      0.4238     10.9880      6.7840     20.1310
     342     114       1      0.4238     10.1440      5.8890     19.3210
     343     115       2     -0.8476      9.9300     21.8470      3.4000
     344     115       1      0.4238      9.9010     22.7710      3.0430
     345     115       1      0.4238      9.5870     21.2540      2.7120
     346     116       2     -0.8476      2.6440     10.8710      3.0240
     347     116       1      0.4238      2.4220     11.0530      3.9530
     348     116       1      0.4238      3.2470     10.0910      3.0170
     349     117       2     -0.8476      2.8820     27.9350     22.4630
     350     117       1      0.4238      2.1260     27.6340     23.0100
     351     117       1      0.4238      2.4410     28.1730     21.6270
     352     118       2     -0.8476      8.4230      8.1900     34.5050
     353     118       1      0.4238      8.5830      7.8390     35.4390
     354     118       1      0.4238      9.0290      8.9340     34.4000
     355     119       2     -0.8476     13.6850     10.0690     29.8530
     356     119       1      0.4238     14.1560     10.6910     30.4620
     357     119       1      0.4238     12.8990      9.8130     30.3650
     358     120       2     -0.8476      1.1230     23.9680      3.2880
     359     120       1      0.4238      1.9360     23.6160      3.7400
     360     120       1      0.4238      0.5530     24.2780      4.0400
     361     121       2     -0.8476     13.6540     15.0580     49.0470
     362     121       1      0.4238     14.6200     14.6640     49.0870
     363     121       1      0.4238     13.1300     14.5100     49.6170
     364     122       2     -0.8476     16.3730     24.0200     49.3150
     365     122       1      0.4238     17.0270     23.3330     49.5450
     366     122       1      0.4238     16.8370     24.6700     48.7610
     367     123       2     -0.8476      2.3830     28.6320      7.7260
     368     123       1      0.4238      1.8580     28.8140      8.5150
     369     123       1      0.4238      1.7960     28.0370      7.2110
     370     124       2     -0.8476     13.5200     24.7940     13.4920
     371     124       1      0.4238     13.1910     25.6830     13.6870
     372     124       1      0.4238     13.3560     24.2180     14.2530
     373     125       2     -0.8476      1.2950     28.3210     10.4150
     374     125       1      0.4238      0.3130     28.2810     10.4430
     375     125       1      0.4238      1.5980     27.4190     10.6630
     376     126       2     -0.8476      3.0100      6.4850      7.9400
     377     126       1      0.4238      2.7670      6.5360      6.9610
     378     126       1      0.4238      3.7100      7.1550      7.9800
     379     127       2     -0.8476     13.6360     24.7610     37.1850
     380     127       1      0.4238     13.5390     25.4640     37.8340
     381     127       1      0.4238     13.9930     24.0130     37.6440
     382     128       2     -0.8476      3.1340     15.3430     34.7740
     383     128       1      0.4238      2.5790     15.1070     35.5230
     384     128       1      0.4238      3.9070     14.8490     34.9030
     385     129       2     -0.8476     23.4240     20.9290     46.0240
     386     129       1      0.4238     22.4100     20.8860     45.7710
     387     129       1      0.4238     23.5950     19.9630     46.2290
     388     130       2     -0.8476      1.7290     22.7110     51.2560
     389     130       1      0.4238      1.9350     23.6280     51.0060
     390     130       1      0.4238      2.6590     22.3510     51.4250
     391     131       2     -0.8476     16.4920     22.7030      4.1820
     392     131       1      0.4238     16.6630     23.1810      5.0220
     393     131       1      0.4238     16.7270     23.3650      3.4860
     394     132       2     -0.8476     13.8400     22.5200      3.1480
     395     132       1      0.4238     13.2650     22.7750      3.8620
     396     132       1      0.4238     14.7280     22.7040      3.4740
     397     133       2     -0.8476      9.8250     28.8410     30.5510
     398     133       1      0.4238     10.7150     28.7180     30.0860
     399     133       1      0.4238      9.4970     27.9710     30.6390
     400     134       2     -0.8476      8.6890     18.4650     31.3920
     401     134       1      0.4238      8.2680     18.0700     30.6100
     402     134       1      0.4238      8.7170     17.7510     32.0410
     403     135       2     -0.8476     10.7380     21.5370     41.4090
     404     135       1      0.4238     11.1460     21.0400     40.6680
     405     135       1      0.4238      9.8770     21.7800     41.1120
     406     136       2     -0.8476     15.6260     27.2680     31.8020
     407     136       1      0.4238     14.7530     27.0360     31.3280