
    3816 atoms
    2400 bonds
    1200 angles
       4 atom types
       1 bond types
       1 angle types

      0.0000     30.0000 xlo xhi
      0.0000     30.0000 ylo yhi
      0.0000     60.0000 zlo zhi

 Masses

 1  1.007940
 2 15.999400
 3 22.989771
 4 35.452999

Atoms

       1       1       2     -0.8476      3.9680     10.3820     76.3040
       2       1       1      0.4238      3.5240     10.7510     75.5010
       3       1       1      0.4238      3.3920     10.6790     77.0270
       4       2       2     -0.8476      6.3330      5.1760     81.2910
       5       2       1      0.4238      6.3780      5.5240     82.1980
       6       2       1      0.4238      6.8920      4.3880     81.3610
       7       3       2     -0.8476      4.8690      4.2600     90.2870
       8       3       1      0.4238      4.2590      3.4600     90.3800
       9       3       1      0.4238      4.2950      4.9550     89.8220
      10       4       2     -0.8476      6.6870      0.6740    111.2560
      11       4       1      0.4238      6.6060      0.4000    110.3240
      12       4       1      0.4238      7.4560      1.3260    111.1740
      13       5       2     -0.8476      1.2240      4.5490    110.6310
      14       5       1      0.4238      1.6530      4.0140    111.3910
      15       5       1      0.4238      0.9600      5.3860    111.1170
      16       6       2     -0.8476     14.7370      6.0940     90.9560
      17       6       1      0.4238     13.8240      5.6190     90.9320
      18       6       1      0.4238     15.2840      5.4130     91.3730
      19       7       2     -0.8476      8.6240     14.1110     81.7320
      20       7       1      0.4238      8.9330     13.6480     82.5120
      21       7       1      0.4238      8.8060     13.4160     81.0450
      22       8       2     -0.8476     11.7620     26.3260     91.7730
      23       8       1      0.4238     11.6860     26.9950     92.4760
      24       8       1      0.4238     10.9190     26.3800     91.3360
      25       9       2     -0.8476      8.7370      2.4690    112.0510
      26       9       1      0.4238      9.3390      2.7000    111.2930
      27       9       1      0.4238      8.5710      3.2120    112.5440
      28      10       2     -0.8476      4.0860     16.6180     61.7100
      29      10       1      0.4238      4.0810     15.6880     61.5960
      30      10       1      0.4238      4.8280     16.8800     61.1810
      31      11       2     -0.8476      3.0500      9.1440     70.0290
      32      11       1      0.4238      2.4100      8.5900     70.3980
      33      11       1      0.4238      2.4640      9.5450     69.3620
      34      12       2     -0.8476      4.2350     16.4950     82.5090
      35      12       1      0.4238      5.1700     16.3340     82.3850
      36      12       1      0.4238      3.9550     15.6670     82.9810
      37      13       2     -0.8476      3.2910     11.4620     88.2600
      38      13       1      0.4238      3.8940     11.2680     87.5290
      39      13       1      0.4238      2.7140     12.0750     87.8300
      40      14       2     -0.8476      4.5400      7.3370     87.4810
      41      14       1      0.4238      4.9560      8.1310     87.0580
      42      14       1      0.4238      4.0860      7.7280     88.2120
      43      15       2     -0.8476      7.4720      7.2990     98.9810
      44      15       1      0.4238      7.3400      7.8500     99.7270
      45      15       1      0.4238      6.5440      7.0560     98.6630
      46      16       2     -0.8476     10.1820      9.4560     75.3160
      47      16       1      0.4238      9.8740     10.0530     75.9970
      48      16       1      0.4238     10.3210      8.5640     75.6890
      49      17       2     -0.8476      8.2640      6.4070     89.8530
      50      17       1      0.4238      8.5420      5.5060     89.9990
      51      17       1      0.4238      8.7220      6.8450     90.6370
      52      18       2     -0.8476     24.4770     14.5710     98.5260
      53      18       1      0.4238     23.8340     14.2420     97.8590
      54      18       1      0.4238     25.3620     14.3820     98.0820
      55      19       2     -0.8476      2.6780     16.5550    112.6000
      56      19       1      0.4238      2.6030     15.5730    112.6650
      57      19       1      0.4238      3.0020     16.7730    113.5430
      58      20       2     -0.8476      1.9610      6.9810     62.3430
      59      20       1      0.4238      2.2430      6.0390     62.3810
      60      20       1      0.4238      1.0780      6.8990     61.8830
      61      21       2     -0.8476      5.1210     20.9030     71.6390
      62      21       1      0.4238      5.7660     21.0820     72.3630
      63      21       1      0.4238      5.6840     21.2140     70.8560
      64      22       2     -0.8476     15.3220     21.1550     73.2310
      65      22       1      0.4238     14.5220     21.1090     73.6920
      66      22       1      0.4238     14.9730     21.3570     72.3180
      67      23       2     -0.8476      1.6390      4.0820     83.2140
      68      23       1      0.4238      1.1390      3.7250     82.4870
      69      23       1      0.4238      2.0750      3.3770     83.5380
      70      24       2     -0.8476      0.7850     15.4370     82.8760
      71      24       1      0.4238      0.9440     15.7250     83.7490
      72      24       1      0.4238      0.6120     16.2610     82.3750
      73      25       2     -0.8476     13.4430     14.0950     93.8790
      74      25       1      0.4238     13.2310     13.8530     94.7560
      75      25       1      0.4238     13.8230     14.9620     93.9190
      76      26       2     -0.8476     12.7210     20.8950     91.7430
      77      26       1      0.4238     12.6300     20.9210     92.7030
      78      26       1      0.4238     12.5810     21.8260     91.4630
      79      27       2     -0.8476     10.2550     17.9330    101.6070
      80      27       1      0.4238      9.3410     18.1610    101.7670
      81      27       1      0.4238     10.5050     17.2630    102.3480
      82      28       2     -0.8476      7.5420     27.1200    116.6850
      83      28       1      0.4238      7.3090     26.3520    116.1450
      84      28       1      0.4238      7.1230     27.8490    116.1220
      85      29       2     -0.8476      5.9080     24.2180     73.3590
      86      29       1      0.4238      5.1400     23.9220     72.9450
      87      29       1      0.4238      6.3370     24.6360     72.6080
      88      30       2     -0.8476      8.8690     25.9840     72.6110
      89      30       1      0.4238      9.4230     25.8420     73.4150
      90      30       1      0.4238      9.1050     26.8950     72.3270
      91      31       2     -0.8476      4.5690     23.0520     76.6650
      92      31       1      0.4238      4.4490     23.9800     76.2880
      93      31       1      0.4238      5.3610     23.0960     77.1760
      94      32       2     -0.8476      3.8990     13.9890     83.9830
      95      32       1      0.4238      3.7300     13.1760     84.4620
      96      32       1      0.4238      4.8610     14.0690     84.0610
      97      33       2     -0.8476     20.2520      2.2610     86.5640
      98      33       1      0.4238     20.7140      1.3790     86.4790
      99      33       1      0.4238     20.9670      2.9530     86.4130
     100      34       2     -0.8476      4.3780     21.1040    110.6660
     101      34       1      0.4238      4.8020     21.4090    111.4610
     102      34       1      0.4238      3.6930     20.3890    110.9980
     103      35       2     -0.8476     23.8170     11.3390    103.1840
     104      35       1      0.4238     22.9870     10.8720    103.2940
     105      35       1      0.4238     24.3100     10.8060    103.7610
     106      36       2     -0.8476     14.3130     11.9750    119.0380
     107      36       1      0.4238     15.0500     11.3440    119.1750
     108      36       1      0.4238     13.5530     11.3570    119.0950
     109      37       2     -0.8476     22.8720      6.5420     63.8780
     110      37       1      0.4238     22.0050      6.1450     64.2300
     111      37       1      0.4238     23.2510      5.9590     63.2580
     112      38       2     -0.8476     11.2260      5.6650     61.4180
     113      38       1      0.4238     11.4380      5.0690     62.1540
     114      38       1      0.4238     10.9570      6.5120     61.8930
     115      39       2     -0.8476      8.9470      4.6140     79.6780
     116      39       1      0.4238      8.2640      3.9110     79.7260
     117      39       1      0.4238      8.3430      5.3640     79.5530
     118      40       2     -0.8476      8.6810     17.6190     83.6750
     119      40       1      0.4238      7.8160     17.6400     84.0950
     120      40       1      0.4238      8.7310     18.5630     83.4090
     121      41       2     -0.8476      4.6420     11.6880     85.6710
     122      41       1      0.4238      5.1420     10.9970     86.0780
     123      41       1      0.4238      5.2030     12.4480     85.9780
     124      42       2     -0.8476      1.9700     15.9750     89.5660
     125      42       1      0.4238      2.4200     16.2500     90.3740
     126      42       1      0.4238      1.0630     15.8170     89.8680
     127      43       2     -0.8476     16.7700     28.3890     62.5810
     128      43       1      0.4238     17.1540     27.5300     62.8990
     129      43       1      0.4238     15.8330     28.1560     62.4880
     130      44       2     -0.8476      6.3210      7.7840    117.5090
     131      44       1      0.4238      5.9650      8.2620    118.2780
     132      44       1      0.4238      6.4570      8.4080    116.8700
     133      45       2     -0.8476      1.1020     25.3840     65.9230
     134      45       1      0.4238      0.8790     26.3650     65.9050
     135      45       1      0.4238      2.0950     25.4630     65.8450
     136      46       2     -0.8476      4.5990     18.0740     67.5690
     137      46       1      0.4238      3.6030     18.1030     67.7220
     138      46       1      0.4238      4.8330     19.0550     67.3240
     139      47       2     -0.8476      9.1920     13.2770     65.7210
     140      47       1      0.4238      8.4190     12.7780     65.8430
     141      47       1      0.4238      9.6420     12.8570     64.9360
     142      48       2     -0.8476      2.7280     13.0310     90.8870
     143      48       1      0.4238      3.0190     12.3730     90.2300
     144      48       1      0.4238      2.8820     13.8420     90.4080
     145      49       2     -0.8476     14.0730     17.8960    107.5140
     146      49       1      0.4238     13.1290     18.0240    107.6240
     147      49       1      0.4238     14.3430     17.4480    108.3750
     148      50       2     -0.8476      3.7930      8.3080    114.2080
     149      50       1      0.4238      4.7390      8.6430    114.0810
     150      50       1      0.4238      3.2420      9.0410    113.8590
     151      51       2     -0.8476      2.4740     18.7680     62.6120
     152      51       1      0.4238      2.9320     17.9280     62.6030
     153      51       1      0.4238      3.2310     19.4200     62.6810
     154      52       2     -0.8476     12.6900     27.6070     97.7600
     155      52       1      0.4238     12.1450     28.4130     97.6930
     156      52       1      0.4238     12.3450     27.2200     98.5750
     157      53       2     -0.8476      2.4290     21.7400    106.0200
     158      53       1      0.4238      2.8290     22.5830    106.3110
     159      53       1      0.4238      1.6900     21.7090    106.6340
     160      54       2     -0.8476     12.5650     22.1850    112.2860
     161      54       1      0.4238     12.9530     21.4270    111.7690
     162      54       1      0.4238     13.2640     22.8470    112.2650
     163      55       2     -0.8476     13.9120     17.9800     79.0220
     164      55       1      0.4238     14.0440     17.7140     79.9080
     165      55       1      0.4238     14.8260     18.1310     78.7470
     166      56       2     -0.8476      1.7370     24.5900    114.8550
     167      56       1      0.4238      0.9760     24.9660    114.3280
     168      56       1      0.4238      2.3470     24.4160    114.1930
     169      57       2     -0.8476      6.6650      2.9740     88.4590
     170      57       1      0.4238      6.0990      3.7370     88.2490
     171      57       1      0.4238      7.4750      3.3550     88.8030
     172      58       2     -0.8476      9.6390      7.0380     92.3010
     173      58       1      0.4238      9.2040      7.5360     93.0340
     174      58       1      0.4238      9.7040      6.1380     92.6220
     175      59       2     -0.8476     15.7140      6.8690     62.9010
     176      59       1      0.4238     16.5240      7.1580     62.5280
     177      59       1      0.4238     15.1080      7.0000     62.0710
     178      60       2     -0.8476      7.8710      4.0980     94.4950
     179      60       1      0.4238      7.2660      4.7040     93.8940
     180      60       1      0.4238      7.7460      4.3950     95.4280
     181      61       2     -0.8476     12.0960     26.4220    110.6880
     182      61       1      0.4238     12.1630     26.5910    109.7630
     183      61       1      0.4238     11.3190     25.8070    110.7340
     184      62       2     -0.8476     10.2350     13.1760     70.5910
     185      62       1      0.4238     10.0090     12.3980     70.0340
     186      62       1      0.4238      9.7720     13.0660     71.4180
     187      63       2     -0.8476      7.3600      2.3740     80.2300
     188      63       1      0.4238      7.9500      1.9190     80.9280
     189      63       1      0.4238      6.4480      2.0960     80.4350
     190      64       2     -0.8476     10.2570     15.0800    109.1330
     191      64       1      0.4238     10.3580     14.4750    108.3720
     192      64       1      0.4238      9.4070     15.4960    108.9180
     193      65       2     -0.8476      2.2240      3.2770    112.9630
     194      65       1      0.4238      2.2630      3.7980    113.7790
     195      65       1      0.4238      1.8330      2.4260    113.2610
     196      66       2     -0.8476     14.1910      2.2190     63.3920
     197      66       1      0.4238     14.4980      2.9810     63.8220
     198      66       1      0.4238     13.5120      1.8770     63.9780
     199      67       2     -0.8476      9.1230     10.8810     69.2270
     200      67       1      0.4238      8.4830     11.0530     68.5480
     201      67       1      0.4238      8.6890     10.3610     69.9340
     202      68       2     -0.8476      9.3780     12.2670     73.1340
     203      68       1      0.4238      8.5280     11.8610     73.3930
     204      68       1      0.4238      9.8120     12.4940     73.9600
     205      69       2     -0.8476      8.6690     17.4580    108.8360
     206      69       1      0.4238      8.2830     17.3210    107.9750
     207      69       1      0.4238      8.0640     18.1880    109.1850
     208      70       2     -0.8476     10.5820      0.9400     62.4530
     209      70       1      0.4238     10.6670      1.2590     63.4160
     210      70       1      0.4238     10.0430      1.6230     62.0670
     211      71       2     -0.8476      3.7030      4.9870     70.2150
     212      71       1      0.4238      3.4090      5.5720     69.4970
     213      71       1      0.4238      4.1170      4.2730     69.7270
     214      72       2     -0.8476      3.5760      7.7650     79.7250
     215      72       1      0.4238      3.0720      7.2910     80.3640
     216      72       1      0.4238      3.9040      8.5880     80.1530
     217      73       2     -0.8476      3.1910      5.3440     93.0130
     218      73       1      0.4238      2.5600      4.8200     93.5500
     219      73       1      0.4238      2.6030      5.8100     92.4200
     220      74       2     -0.8476      2.1400      8.5650     89.0620
     221      74       1      0.4238      1.9800      8.3440     88.1470
     222      74       1      0.4238      2.1340      9.5110     89.1330
     223      75       2     -0.8476     10.0000     13.3930    106.8440
     224      75       1      0.4238     10.8120     13.4550    106.4120
     225      75       1      0.4238     10.0810     12.4930    107.1550
     226      76       2     -0.8476      1.0370     18.2020     97.4900
     227      76       1      0.4238      0.7590     19.0920     97.7520
     228      76       1      0.4238      1.1660     18.2490     96.5470
     229      77       2     -0.8476     10.2780      8.1750     85.3480
     230      77       1      0.4238      9.8890      7.9260     86.2450
     231      77       1      0.4238     10.7360      8.9560     85.5870
     232      78       2     -0.8476     20.7750     18.4620    114.1360
     233      78       1      0.4238     20.7420     19.4840    113.9420
     234      78       1      0.4238     20.1410     18.0570    113.5130
     235      79       2     -0.8476     10.2270      4.4850     93.2050
     236      79       1      0.4238      9.3560      4.2350     93.6020
     237      79       1      0.4238     10.6600      3.6250     93.0650
     238      80       2     -0.8476     21.0650     16.5180    108.7720
     239      80       1      0.4238     21.1220     16.4580    107.7900
     240      80       1      0.4238     21.8950     16.1570    109.0990
     241      81       2     -0.8476      1.1970      4.7740    115.1190
     242      81       1      0.4238      1.6220      5.6430    115.1520
     243      81       1      0.4238      0.4900      4.8760    115.7440
     244      82       2     -0.8476      3.4190     10.6250     73.5580
     245      82       1      0.4238      3.8980     11.2000     72.9120
     246      82       1      0.4238      3.7400      9.7300     73.3620
     247      83       2     -0.8476      2.6780      6.1060     76.6530
     248      83       1      0.4238      2.4570      6.4610     77.4990
     249      83       1      0.4238      3.6010      6.3320     76.5260
     250      84       2     -0.8476      6.6820     22.5710     62.7190
     251      84       1      0.4238      5.8500     22.3350     62.2470
     252      84       1      0.4238      7.1590     21.7720     62.5920
     253      85       2     -0.8476      4.3170      4.2050     79.8180
     254      85       1      0.4238      3.4420      4.3420     79.5320
     255      85       1      0.4238      4.8820      5.0270     79.6950
     256      86       2     -0.8476      2.6440     20.7720     82.0310
     257      86       1      0.4238      3.2320     21.1210     81.3450
     258      86       1      0.4238      1.7670     20.8480     81.5380
     259      87       2     -0.8476     20.9130     13.9160     71.4660
     260      87       1      0.4238     21.0390     14.2590     70.6180
     261      87       1      0.4238     19.9190     14.1160     71.6500
     262      88       2     -0.8476     11.7920      5.8480     95.2460
     263      88       1      0.4238     11.4630      5.5040     94.4400
     264      88       1      0.4238     11.6860      6.7790     95.2590
     265      89       2     -0.8476      2.0870      9.8180     84.9150
     266      89       1      0.4238      2.4320      9.8750     84.0460
     267      89       1      0.4238      2.1600     10.7060     85.1870
     268      90       2     -0.8476      4.4270      2.1700     93.1610
     269      90       1      0.4238      4.1300      2.5720     92.3890
     270      90       1      0.4238      5.0300      2.8620     93.4980
     271      91       2     -0.8476     14.8260     10.8320     80.5370
     272      91       1      0.4238     14.4620     10.0330     80.9030
     273      91       1      0.4238     14.7660     10.7200     79.5940
     274      92       2     -0.8476     10.7890     10.0420    113.8920
     275      92       1      0.4238     10.3350      9.6500    114.6190
     276      92       1      0.4238     11.0470      9.2980    113.3660
     277      93       2     -0.8476      8.2650      5.7560    117.0780
     278      93       1      0.4238      8.6950      5.9110    117.8890
     279      93       1      0.4238      7.5850      6.4430    117.0770
     280      94       2     -0.8476     26.4240     16.8940     77.2070
     281      94       1      0.4238     27.2480     17.1640     77.6440
     282      94       1      0.4238     26.4370     17.3480     76.3000
     283      95       2     -0.8476      9.1760     28.7370     65.9790
     284      95       1      0.4238      9.5270     27.8770     65.7580
     285      95       1      0.4238      9.0900     28.6980     66.9330
     286      96       2     -0.8476     16.5830      7.6540     83.1810
     287      96       1      0.4238     15.9400      8.3580     82.8490
     288      96       1      0.4238     16.2730      6.8600     82.7790
     289      97       2     -0.8476     23.1720     18.7410     77.1880
     290      97       1      0.4238     22.5010     18.1640     76.7790
     291      97       1      0.4238     22.6350     19.2810     77.8250
     292      98       2     -0.8476     10.4050      1.1410     99.5110
     293      98       1      0.4238      9.7880      1.7500     99.0310
     294      98       1      0.4238     10.9320      1.7180    100.1050
     295      99       2     -0.8476      1.0420     20.9470     97.8240
     296      99       1      0.4238      0.4630     21.5020     97.2550
     297      99       1      0.4238      1.8320     20.7100     97.2370
     298     100       2     -0.8476      2.3070     13.5540    109.0530
     299     100       1      0.4238      1.9330     13.4330    108.1530
     300     100       1      0.4238      2.3820     14.5010    109.0550
     301     101       2     -0.8476      5.7580     13.3970     64.9890
     302     101       1      0.4238      5.9730     13.3190     64.0120
     303     101       1      0.4238      5.1990     14.1940     65.0570
     304     102       2     -0.8476      9.2690     17.3070    116.1180
     305     102       1      0.4238      9.9420     16.6470    116.0150
     306     102       1      0.4238      9.3130     17.4690    117.0580
     307     103       2     -0.8476     28.1490     10.1680     79.5730
     308     103       1      0.4238     27.4700     10.0200     80.2630
     309     103       1      0.4238     27.7030     10.7190     78.8890
     310     104       2     -0.8476      4.8520      1.6700     80.7300
     311     104       1      0.4238      4.5740      2.4940     80.3530
     312     104       1      0.4238      4.5350      1.1010     79.9710
     313     105       2     -0.8476      4.8940     25.5660     75.6000
     314     105       1      0.4238      3.9380     25.8000     75.5960
     315     105       1      0.4238      5.0580     25.1970     74.7120
     316     106       2     -0.8476     11.2660      0.7870     88.0640
     317     106       1      0.4238     11.1350      1.7230     87.8750
     318     106       1      0.4238     10.8580      0.3920     87.2830
     319     107       2     -0.8476      6.8800     13.2920     90.0910
     320     107       1      0.4238      6.7300     14.1860     90.3720
     321     107       1      0.4238      6.7290     12.7990     90.8810
     322     108       2     -0.8476      5.4600     14.0440     68.3540
     323     108       1      0.4238      6.3480     13.7220     68.6070
     324     108       1      0.4238      5.3080     14.7930     68.9280
     325     109       2     -0.8476      1.7880      8.0540     92.2380
     326     109       1      0.4238      1.0780      8.6230     92.5950
     327     109       1      0.4238      1.8430      8.3430     91.3210
     328     110       2     -0.8476      3.6480     27.3870    104.7690
     329     110       1      0.4238      4.1470     27.5550    105.6250
     330     110       1      0.4238      3.1130     26.6350    105.0610
     331     111       2     -0.8476      1.9780     22.2420     61.4350
     332     111       1      0.4238      1.5720     21.5800     61.9920
     333     111       1      0.4238      1.7980     23.1090     61.8930
     334     112       2     -0.8476      9.9300     21.8470     63.4000
     335     112       1      0.4238      9.9010     22.7710     63.0430
     336     112       1      0.4238      9.5870     21.2540     62.7120
     337     113       2     -0.8476      2.6440     10.8710     63.0240
     338     113       1      0.4238      2.4220     11.0530     63.9530
     339     113       1      0.4238      3.2470     10.0910     63.0170
     340     114       2     -0.8476      2.8820     27.9350     82.4630
     341     114       1      0.4238      2.1260     27.6340     83.0100
     342     114       1      0.4238      2.4410     28.1730     81.6270
     343     115       2     -0.8476      8.4230      8.1900     94.5050
     344     115       1      0.4238      8.5830      7.8390     95.4390
     345     115       1      0.4238      9.0290      8.9340     94.4000
     346     116       2     -0.8476     13.6850     10.0690     89.8530
     347     116       1      0.4238     14.1560     10.6910     90.4620
     348     116       1      0.4238     12.8990      9.8130     90.3650
     349     117       2     -0.8476      1.1230     23.9680     63.2880
     350     117       1      0.4238      1.9360     23.6160     63.7400
     351     117       1      0.4238      0.5530     24.2780     64.0400
     352     118       2     -0.8476     13.6540     15.0580    109.0470
     353     118       1      0.4238     14.6200     14.6640    109.0870
     354     118       1      0.4238     13.1300     14.5100    109.6170
     355     119       2     -0.8476      3.9110     19.9410    114.6990
     356     119       1      0.4238      3.1250     20.4680    114.8960
     357     119       1      0.4238      4.5580     20.2720    115.3310
     358     120       2     -0.8476     16.3730     24.0200    109.3150
     359     120       1      0.4238     17.0270     23.3330    109.5450
     360     120       1      0.4238     16.8370     24.6700    108.7610
     361     121       2     -0.8476     13.5200     24.7940     73.4920
     362     121       1      0.4238     13.1910     25.6830     73.6870
     363     121       1      0.4238     13.3560     24.2180     74.2530
     364     122       2     -0.8476      1.2950     28.3210     70.4150
     365     122       1      0.4238      0.3130     28.2810     70.4430
     366     122       1      0.4238      1.5980     27.4190     70.6630
     367     123       2     -0.8476      3.0100      6.4850     67.9400
     368     123       1      0.4238      2.7670      6.5360     66.9610
     369     123       1      0.4238      3.7100      7.1550     67.9800
     370     124       2     -0.8476      7.2110     19.7580     77.7350
     371     124       1      0.4238      7.8170     20.4180     77.3570
     372     124       1      0.4238      6.6150     19.4360     76.9880
     373     125       2     -0.8476     13.6360     24.7610     97.1850
     374     125       1      0.4238     13.5390     25.4640     97.8340
     375     125       1      0.4238     13.9930     24.0130     97.6440
     376     126       2     -0.8476      3.1340     15.3430     94.7740
     377     126       1      0.4238      2.5790     15.1070     95.5230
     378     126       1      0.4238      3.9070     14.8490     94.9030
     379     127       2     -0.8476     23.4240     20.9290    106.0240
     380     127       1      0.4238     22.4100     20.8860    105.7710
     381     127       1      0.4238     23.5950     19.9630    106.2290
     382     128       2     -0.8476      5.4790     21.1900     87.7870
     383     128       1      0.4238      4.9180     21.9060     88.0460
     384     128       1      0.4238      5.4960     20.5110     88.5070
     385     129       2     -0.8476      1.7290     22.7110    111.2560
     386     129       1      0.4238      1.9350     23.6280    111.0060
     387     129       1      0.4238      2.6590     22.3510    111.4250
     388     130       2     -0.8476     16.4920     22.7030     64.1820
     389     130       1      0.4238     16.6630     23.1810     65.0220
     390     130       1      0.4238     16.7270     23.3650     63.4860
     391     131       2     -0.8476     13.8400     22.5200     63.1480
     392     131       1      0.4238     13.2650     22.7750     63.8620
     393     131       1      0.4238     14.7280     22.7040     63.4740
     394     132       2     -0.8476      9.8250     28.8410     90.5510
     395     132       1      0.4238     10.7150     28.7180     90.0860
     396     132       1      0.4238      9.4970     27.9710     90.6390
     397     133       2     -0.8476      8.6890     18.4650     91.3920
     398     133       1      0.4238      8.2680     18.0700     90.6100
     399     133       1      0.4238      8.7170     17.7510     92.0410
     400     134       2     -0.8476     10.7380     21.5370    101.4090
     401     134       1      0.4238     11.1460     21.0400    100.6680
     402     134       1      0.4238      9.8770     21.7800    101.1120
     403     135       2     -0.8476     15.6260     27.2680     91.8020
     404     135       1      0.4238     14.7530     27.0360     91.3280
     405     135       1      0.4238     15.3680     27.9200     92.4330
     406     136       2     -0.8476      3.5710     19.2740    103.5870
     407     136       1      0.4238      3.7580     18.3730    103.3880