box     948
    8460 atoms
    6024 bonds
    4812 angles
    4764 dihedrals
      11 atom types
       2 bond types
       2 angle types
       1 dihedral types
      0.0000     29.8200 xlo xhi
      0.0000     29.4720 ylo yhi
    -20.0000    150.0000 zlo zhi

 Masses

  1  1.007940
  2 15.999400
  3 22.989771
  4 35.452999
  5 12.010700
  6 12.010700
  7  1.007940
  8 15.999400
  9 12.010700
 10 22.989771
 11 35.452999

 Atoms

       1       1       8    -0.84760     3.96800    10.38200    76.30400
       2       1       7     0.42380     3.52400    10.75100    75.50100
       3       1       7     0.42380     3.39200    10.67900    77.02700
       4       2       8    -0.84760     6.33300     5.17600    81.29100
       5       2       7     0.42380     6.37800     5.52400    82.19800
       6       2       7     0.42380     6.89200     4.38800    81.36100
       7       3       8    -0.84760     4.86900     4.26000    90.28700
       8       3       7     0.42380     4.25900     3.46000    90.38000
       9       3       7     0.42380     4.29500     4.95500    89.82200
      10       4       8    -0.84760     6.68700     0.67400   111.25600
      11       4       7     0.42380     6.60600     0.40000   110.32400
      12       4       7     0.42380     7.45600     1.32600   111.17400
      13       5       8    -0.84760     1.22400     4.54900   110.63100
      14       5       7     0.42380     1.65300     4.01400   111.39100
      15       5       7     0.42380     0.96000     5.38600   111.11700
      16       6       8    -0.84760    14.73700     6.09400    90.95600
      17       6       7     0.42380    13.82400     5.61900    90.93200
      18       6       7     0.42380    15.28400     5.41300    91.37300
      19       7       8    -0.84760     8.62400    14.11100    81.73200
      20       7       7     0.42380     8.93300    13.64800    82.51200
      21       7       7     0.42380     8.80600    13.41600    81.04500
      22       8       8    -0.84760    11.76200    26.32600    91.77300
      23       8       7     0.42380    11.68600    26.99500    92.47600
      24       8       7     0.42380    10.91900    26.38000    91.33600
      25       9       8    -0.84760     8.73700     2.46900   112.05100
      26       9       7     0.42380     9.33900     2.70000   111.29300
      27       9       7     0.42380     8.57100     3.21200   112.54400
      28      10       8    -0.84760     4.08600    16.61800    61.71000
      29      10       7     0.42380     4.08100    15.68800    61.59600
      30      10       7     0.42380     4.82800    16.88000    61.18100
      31      11       8    -0.84760     3.05000     9.14400    70.02900
      32      11       7     0.42380     2.41000     8.59000    70.39800
      33      11       7     0.42380     2.46400     9.54500    69.36200
      34      12       8    -0.84760     4.23500    16.49500    82.50900
      35      12       7     0.42380     5.17000    16.33400    82.38500
      36      12       7     0.42380     3.95500    15.66700    82.98100
      37      13       8    -0.84760     3.29100    11.46200    88.26000
      38      13       7     0.42380     3.89400    11.26800    87.52900
      39      13       7     0.42380     2.71400    12.07500    87.83000
      40      14       8    -0.84760     4.54000     7.33700    87.48100
      41      14       7     0.42380     4.95600     8.13100    87.05800
      42      14       7     0.42380     4.08600     7.72800    88.21200
      43      15       8    -0.84760     7.47200     7.29900    98.98100
      44      15       7     0.42380     7.34000     7.85000    99.72700
      45      15       7     0.42380     6.54400     7.05600    98.66300
      46      16       8    -0.84760    10.18200     9.45600    75.31600
      47      16       7     0.42380     9.87400    10.05300    75.99700
      48      16       7     0.42380    10.32100     8.56400    75.68900
      49      17       8    -0.84760     8.26400     6.40700    89.85300
      50      17       7     0.42380     8.54200     5.50600    89.99900
      51      17       7     0.42380     8.72200     6.84500    90.63700
      52      18       8    -0.84760    24.47700    14.57100    98.52600
      53      18       7     0.42380    23.83400    14.24200    97.85900
      54      18       7     0.42380    25.36200    14.38200    98.08200
      55      19       8    -0.84760     2.67800    16.55500   112.60000
      56      19       7     0.42380     2.60300    15.57300   112.66500
      57      19       7     0.42380     3.00200    16.77300   113.54300
      58      20       8    -0.84760     1.96100     6.98100    62.34300
      59      20       7     0.42380     2.24300     6.03900    62.38100
      60      20       7     0.42380     1.07800     6.89900    61.88300
      61      21       8    -0.84760     5.12100    20.90300    71.63900
      62      21       7     0.42380     5.76600    21.08200    72.36300
      63      21       7     0.42380     5.68400    21.21400    70.85600
      64      22       8    -0.84760    15.32200    21.15500    73.23100
      65      22       7     0.42380    14.52200    21.10900    73.69200
      66      22       7     0.42380    14.97300    21.35700    72.31800
      67      23       8    -0.84760     1.63900     4.08200    83.21400
      68      23       7     0.42380     1.13900     3.72500    82.48700
      69      23       7     0.42380     2.07500     3.37700    83.53800
      70      24       8    -0.84760     0.78500    15.43700    82.87600
      71      24       7     0.42380     0.94400    15.72500    83.74900
      72      24       7     0.42380     0.61200    16.26100    82.37500
      73      25       8    -0.84760    13.44300    14.09500    93.87900
      74      25       7     0.42380    13.23100    13.85300    94.75600
      75      25       7     0.42380    13.82300    14.96200    93.91900
      76      26       8    -0.84760    12.72100    20.89500    91.74300
      77      26       7     0.42380    12.63000    20.92100    92.70300
      78      26       7     0.42380    12.58100    21.82600    91.46300
      79      27       8    -0.84760    10.25500    17.93300   101.60700
      80      27       7     0.42380     9.34100    18.16100   101.76700
      81      27       7     0.42380    10.50500    17.26300   102.34800
      82      28       8    -0.84760     7.54200    27.12000   116.68500
      83      28       7     0.42380     7.30900    26.35200   116.14500
      84      28       7     0.42380     7.12300    27.84900   116.12200
      85      29       8    -0.84760     5.90800    24.21800    73.35900
      86      29       7     0.42380     5.14000    23.92200    72.94500
      87      29       7     0.42380     6.33700    24.63600    72.60800
      88      30       8    -0.84760     8.86900    25.98400    72.61100
      89      30       7     0.42380     9.42300    25.84200    73.41500
      90      30       7     0.42380     9.10500    26.89500    72.32700
      91      31       8    -0.84760     4.56900    23.05200    76.66500
      92      31       7     0.42380     4.44900    23.98000    76.28800
      93      31       7     0.42380     5.36100    23.09600    77.17600
      94      32       8    -0.84760     3.89900    13.98900    83.98300
      95      32       7     0.42380     3.73000    13.17600    84.46200
      96      32       7     0.42380     4.86100    14.06900    84.06100
      97      33       8    -0.84760    20.25200     2.26100    86.56400
      98      33       7     0.42380    20.71400     1.37900    86.47900
      99      33       7     0.42380    20.96700     2.95300    86.41300
     100      34       8    -0.84760     4.37800    21.10400   110.66600
     101      34       7     0.42380     4.80200    21.40900   111.46100
     102      34       7     0.42380     3.69300    20.38900   110.99800
     103      35       8    -0.84760    23.81700    11.33900   103.18400
     104      35       7     0.42380    22.98700    10.87200   103.29400
     105      35       7     0.42380    24.31000    10.80600   103.76100
     106      36       8    -0.84760    14.31300    11.97500   119.03800
     107      36       7     0.42380    15.05000    11.34400   119.17500
     108      36       7     0.42380    13.55300    11.35700   119.09500
     109      37       8    -0.84760    22.87200     6.54200    63.87800
     110      37       7     0.42380    22.00500     6.14500    64.23000
     111      37       7     0.42380    23.25100     5.95900    63.25800
     112      38       8    -0.84760    11.22600     5.66500    61.41800
     113      38       7     0.42380    11.43800     5.06900    62.15400
     114      38       7     0.42380    10.95700     6.51200    61.89300
     115      39       8    -0.84760     8.94700     4.61400    79.67800
     116      39       7     0.42380     8.26400     3.91100    79.72600
     117      39       7     0.42380     8.34300     5.36400    79.55300
     118      40       8    -0.84760     8.68100    17.61900    83.67500
     119      40       7     0.42380     7.81600    17.64000    84.09500
     120      40       7     0.42380     8.73100    18.56300    83.40900
     121      41       8    -0.84760     4.64200    11.68800    85.67100
     122      41       7     0.42380     5.14200    10.99700    86.07800
     123      41       7     0.42380     5.20300    12.44800    85.97800
     124      42       8    -0.84760     1.97000    15.97500    89.56600
     125      42       7     0.42380     2.42000    16.25000    90.37400
     126      42       7     0.42380     1.06300    15.81700    89.86800
     127      43       8    -0.84760    16.77000    28.38900    62.58100
     128      43       7     0.42380    17.15400    27.53000    62.89900
     129      43       7     0.42380    15.83300    28.15600    62.48800
     130      44       8    -0.84760     6.32100     7.78400   117.50900
     131      44       7     0.42380     5.96500     8.26200   118.27800
     132      44       7     0.42380     6.45700     8.40800   116.87000
     133      45       8    -0.84760     1.10200    25.38400    65.92300
     134      45       7     0.42380     0.87900    26.36500    65.90500
     135      45       7     0.42380     2.09500    25.46300    65.84500
     136      46       8    -0.84760     4.59900    18.07400    67.56900
     137      46       7     0.42380     3.60300    18.10300    67.72200
     138      46       7     0.42380     4.83300    19.05500    67.32400
     139      47       8    -0.84760     9.19200    13.27700    65.72100
     140      47       7     0.42380     8.41900    12.77800    65.84300
     141      47       7     0.42380     9.64200    12.85700    64.93600
     142      48       8    -0.84760     2.72800    13.03100    90.88700
     143      48       7     0.42380     3.01900    12.37300    90.23000
     144      48       7     0.42380     2.88200    13.84200    90.40800
     145      49       8    -0.84760    14.07300    17.89600   107.51400
     146      49       7     0.42380    13.12900    18.02400   107.62400
     147      49       7     0.42380    14.34300    17.44800   108.37500
     148      50       8    -0.84760     3.79300     8.30800   114.20800
     149      50       7     0.42380     4.73900     8.64300   114.08100
     150      50       7     0.42380     3.24200     9.04100   113.85900
     151      51       8    -0.84760     2.47400    18.76800    62.61200
     152      51       7     0.42380     2.93200    17.92800    62.60300
     153      51       7     0.42380     3.23100    19.42000    62.68100
     154      52       8    -0.84760    12.69000    27.60700    97.76000
     155      52       7     0.42380    12.14500    28.41300    97.69300
     156      52       7     0.42380    12.34500    27.22000    98.57500
     157      53       8    -0.84760     2.42900    21.74000   106.02000
     158      53       7     0.42380     2.82900    22.58300   106.31100
     159      53       7     0.42380     1.69000    21.70900   106.63400
     160      54       8    -0.84760    12.56500    22.18500   112.28600
     161      54       7     0.42380    12.95300    21.42700   111.76900
     162      54       7     0.42380    13.26400    22.84700   112.26500
     163      55       8    -0.84760    13.91200    17.98000    79.02200
     164      55       7     0.42380    14.04400    17.71400    79.90800
     165      55       7     0.42380    14.82600    18.13100    78.74700
     166      56       8    -0.84760     1.73700    24.59000   114.85500
     167      56       7     0.42380     0.97600    24.96600   114.32800
     168      56       7     0.42380     2.34700    24.41600   114.19300
     169      57       8    -0.84760     6.66500     2.97400    88.45900
     170      57       7     0.42380     6.09900     3.73700    88.24900
     171      57       7     0.42380     7.47500     3.35500    88.80300
     172      58       8    -0.84760     9.63900     7.03800    92.30100
     173      58       7     0.42380     9.20400     7.53600    93.03400
     174      58       7     0.42380     9.70400     6.13800    92.62200
     175      59       8    -0.84760    15.71400     6.86900    62.90100
     176      59       7     0.42380    16.52400     7.15800    62.52800
     177      59       7     0.42380    15.10800     7.00000    62.07100
     178      60       8    -0.84760     7.87100     4.09800    94.49500
     179      60       7     0.42380     7.26600     4.70400    93.89400
     180      60       7     0.42380     7.74600     4.39500    95.42800
     181      61       8    -0.84760    12.09600    26.42200   110.68800
     182      61       7     0.42380    12.16300    26.59100   109.76300
     183      61       7     0.42380    11.31900    25.80700   110.73400
     184      62       8    -0.84760    10.23500    13.17600    70.59100
     185      62       7     0.42380    10.00900    12.39800    70.03400
     186      62       7     0.42380     9.77200    13.06600    71.41800
     187      63       8    -0.84760     7.36000     2.37400    80.23000
     188      63       7     0.42380     7.95000     1.91900    80.92800
     189      63       7     0.42380     6.44800     2.09600    80.43500
     190      64       8    -0.84760    10.25700    15.08000   109.13300
     191      64       7     0.42380    10.35800    14.47500   108.37200
     192      64       7     0.42380     9.40700    15.49600   108.91800
     193      65       8    -0.84760     2.22400     3.27700   112.96300
     194      65       7     0.42380     2.26300     3.79800   113.77900
     195      65       7     0.42380     1.83300     2.42600   113.26100
     196      66       8    -0.84760    14.19100     2.21900    63.39200
     197      66       7     0.42380    14.49800     2.98100    63.82200
     198      66       7     0.42380    13.51200     1.87700    63.97800
     199      67       8    -0.84760     9.12300    10.88100    69.22700
     200      67       7     0.42380     8.48300    11.05300    68.54800
     201      67       7     0.42380     8.68900    10.36100    69.93400
     202      68       8    -0.84760     9.37800    12.26700    73.13400
     203      68       7     0.42380     8.52800    11.86100    73.39300
     204      68       7     0.42380     9.81200    12.49400    73.96000
     205      69       8    -0.84760     8.66900    17.45800   108.83600
     206      69       7     0.42380     8.28300    17.32100   107.97500
     207      69       7     0.42380     8.06400    18.18800   109.18500
     208      70       8    -0.84760    10.58200     0.94000    62.45300
     209      70       7     0.42380    10.66700     1.25900    63.41600
     210      70       7     0.42380    10.04300     1.62300    62.06700
     211      71       8    -0.84760     3.70300     4.98700    70.21500
     212      71       7     0.42380     3.40900     5.57200    69.49700
     213      71       7     0.42380     4.11700     4.27300    69.72700
     214      72       8    -0.84760     3.57600     7.76500    79.72500
     215      72       7     0.42380     3.07200     7.29100    80.36400
     216      72       7     0.42380     3.90400     8.58800    80.15300
     217      73       8    -0.84760     3.19100     5.34400    93.01300
     218      73       7     0.42380     2.56000     4.82000    93.55000
     219      73       7     0.42380     2.60300     5.81000    92.42000
     220      74       8    -0.84760     2.14000     8.56500    89.06200
     221      74       7     0.42380     1.98000     8.34400    88.14700
     222      74       7     0.42380     2.13400     9.51100    89.13300
     223      75       8    -0.84760    10.00000    13.39300   106.84400
     224      75       7     0.42380    10.81200    13.45500   106.41200
     225      75       7     0.42380    10.08100    12.49300   107.15500
     226      76       8    -0.84760     1.03700    18.20200    97.49000
     227      76       7     0.42380     0.75900    19.09200    97.75200
     228      76       7     0.42380     1.16600    18.24900    96.54700
     229      77       8    -0.84760    10.27800     8.17500    85.34800
     230      77       7     0.42380     9.88900     7.92600    86.24500
     231      77       7     0.42380    10.73600     8.95600    85.58700
     232      78       8    -0.84760    20.77500    18.46200   114.13600
     233      78       7     0.42380    20.74200    19.48400   113.94200
     234      78       7     0.42380    20.14100    18.05700   113.51300
     235      79       8    -0.84760    10.22700     4.48500    93.20500
     236      79       7     0.42380     9.35600     4.23500    93.60200
     237      79       7     0.42380    10.66000     3.62500    93.06500
     238      80       8    -0.84760    21.06500    16.51800   108.77200
     239      80       7     0.42380    21.12200    16.45800   107.79000
     240      80       7     0.42380    21.89500    16.15700   109.09900
     241      81       8    -0.84760     1.19700     4.77400   115.11900
     242      81       7     0.42380     1.62200     5.64300   115.15200
     243      81       7     0.42380     0.49000     4.87600   115.74400
     244      82       8    -0.84760     3.41900    10.62500    73.55800
     245      82       7     0.42380     3.89800    11.20000    72.91200
     246      82       7     0.42380     3.74000     9.73000    73.36200
     247      83       8    -0.84760     2.67800     6.10600    76.65300
     248      83       7     0.42380     2.45700     6.46100    77.49900
     249      83       7     0.42380     3.60100     6.33200    76.52600
     250      84       8    -0.84760     6.68200    22.57100    62.71900
     251      84       7     0.42380     5.85000    22.33500    62.24700
     252      84       7     0.42380     7.15900    21.77200    62.59200
     253      85       8    -0.84760     4.31700     4.20500    79.81800
     254      85       7     0.42380     3.44200     4.34200    79.53200
     255      85       7     0.42380     4.88200     5.02700    79.69500
     256      86       8    -0.84760     2.64400    20.77200    82.03100
     257      86       7     0.42380     3.23200    21.12100    81.34500
     258      86       7     0.42380     1.76700    20.84800    81.53800
     259      87       8    -0.84760    20.91300    13.91600    71.46600
     260      87       7     0.42380    21.03900    14.25900    70.61800
     261      87       7     0.42380    19.91900    14.11600    71.65000
     262      88       8    -0.84760    11.79200     5.84800    95.24600
     263      88       7     0.42380    11.46300     5.50400    94.44000
     264      88       7     0.42380    11.68600     6.77900    95.25900
     265      89       8    -0.84760     2.08700     9.81800    84.91500
     266      89       7     0.42380     2.43200     9.87500    84.04600
     267      89       7     0.42380     2.16000    10.70600    85.18700
     268      90       8    -0.84760     4.42700     2.17000    93.16100
     269      90       7     0.42380     4.13000     2.57200    92.38900
     270      90       7     0.42380     5.03000     2.86200    93.49800
     271      91       8    -0.84760    14.82600    10.83200    80.53700
     272      91       7     0.42380    14.46200    10.03300    80.90300
     273      91       7     0.42380    14.76600    10.72000    79.59400
     274      92       8    -0.84760    10.78900    10.04200   113.89200
     275      92       7     0.42380    10.33500     9.65000   114.61900
     276      92       7     0.42380    11.04700     9.29800   113.36600
     277      93       8    -0.84760     8.26500     5.75600   117.07800
     278      93       7     0.42380     8.69500     5.91100   117.88900
     279      93       7     0.42380     7.58500     6.44300   117.07700
     280      94       8    -0.84760    26.42400    16.89400    77.20700
     281      94       7     0.42380    27.24800    17.16400    77.64400
     282      94       7     0.42380    26.43700    17.34800    76.30000
     283      95       8    -0.84760     9.17600    28.73700    65.97900
     284      95       7     0.42380     9.52700    27.87700    65.75800
     285      95       7     0.42380     9.09000    28.69800    66.93300
     286      96       8    -0.84760    16.58300     7.65400    83.18100
     287      96       7     0.42380    15.94000     8.35800    82.84900
     288      96       7     0.42380    16.27300     6.86000    82.77900
     289      97       8    -0.84760    23.17200    18.74100    77.18800
     290      97       7     0.42380    22.50100    18.16400    76.77900
     291      97       7     0.42380    22.63500    19.28100    77.82500
     292      98       8    -0.84760    10.40500     1.14100    99.51100
     293      98       7     0.42380     9.78800     1.75000    99.03100
     294      98       7     0.42380    10.93200     1.71800   100.10500
     295      99       8    -0.84760     1.04200    20.94700    97.82400
     296      99       7     0.42380     0.46300    21.50200    97.25500
     297      99       7     0.42380     1.83200    20.71000    97.23700
     298     100       8    -0.84760     2.30700    13.55400   109.05300
     299     100       7     0.42380     1.93300    13.43300   108.15300
     300     100       7     0.42380     2.38200    14.50100   109.05500
     301     101       8    -0.84760     5.75800    13.39700    64.98900
     302     101       7     0.42380     5.97300    13.31900    64.01200
     303     101       7     0.42380     5.19900    14.19400    65.05700
     304     102       8    -0.84760     9.26900    17.30700   116.11800
     305     102       7     0.42380     9.94200    16.64700   116.01500
     306     102       7     0.42380     9.31300    17.46900   117.05800
     307     103       8    -0.84760    28.14900    10.16800    79.57300
     308     103       7     0.42380    27.47000    10.02000    80.26300
     309     103       7     0.42380    27.70300    10.71900    78.88900
     310     104       8    -0.84760     4.85200     1.67000    80.73000
     311     104       7     0.42380     4.57400     2.49400    80.35300
     312     104       7     0.42380     4.53500     1.10100    79.97100
     313     105       8    -0.84760     4.89400    25.56600    75.60000
     314     105       7     0.42380     3.93800    25.80000    75.59600
     315     105       7     0.42380     5.05800    25.19700    74.71200
     316     106       8    -0.84760    11.26600     0.78700    88.06400
     317     106       7     0.42380    11.13500     1.72300    87.87500
     318     106       7     0.42380    10.85800     0.39200    87.28300
     319     107       8    -0.84760     6.88000    13.29200    90.09100
     320     107       7     0.42380     6.73000    14.18600    90.37200
     321     107       7     0.42380     6.72900    12.79900    90.88100
     322     108       8    -0.84760     5.46000    14.04400    68.35400
     323     108       7     0.42380     6.34800    13.72200    68.60700
     324     108       7     0.42380     5.30800    14.79300    68.92800
     325     109       8    -0.84760     1.78800     8.05400    92.23800
     326     109       7     0.42380     1.07800     8.62300    92.59500
     327     109       7     0.42380     1.84300     8.34300    91.32100
     328     110       8    -0.84760     3.64800    27.38700   104.76900
     329     110       7     0.42380     4.14700    27.55500   105.62500
     330     110       7     0.42380     3.11300    26.63500   105.06100
     331     111       8    -0.84760     1.97800    22.24200    61.43500
     332     111       7     0.42380     1.57200    21.58000    61.99200
     333     111       7     0.42380     1.79800    23.10900    61.89300
     334     112       8    -0.84760     9.93000    21.84700    63.40000
     335     112       7     0.42380     9.90100    22.77100    63.04300
     336     112       7     0.42380     9.58700    21.25400    62.71200
     337     113       8    -0.84760     2.64400    10.87100    63.02400
     338     113       7     0.42380     2.42200    11.05300    63.95300
     339     113       7     0.42380     3.24700    10.09100    63.01700
     340     114       8    -0.84760     2.88200    27.93500    82.46300
     341     114       7     0.42380     2.12600    27.63400    83.01000
     342     114       7     0.42380     2.44100    28.17300    81.62700
     343     115       8    -0.84760     8.42300     8.19000    94.50500
     344     115       7     0.42380     8.58300     7.83900    95.43900
     345     115       7     0.42380     9.02900     8.93400    94.40000
     346     116       8    -0.84760    13.68500    10.06900    89.85300
     347     116       7     0.42380    14.15600    10.69100    90.46200
     348     116       7     0.42380    12.89900     9.81300    90.36500
     349     117       8    -0.84760     1.12300    23.96800    63.28800
     350     117       7     0.42380     1.93600    23.61600    63.74000
     351     117       7     0.42380     0.55300    24.27800    64.04000
     352     118       8    -0.84760    13.65400    15.05800   109.04700
     353     118       7     0.42380    14.62000    14.66400   109.08700
     354     118       7     0.42380    13.13000    14.51000   109.61700
     355     119       8    -0.84760     3.91100    19.94100   114.69900
     356     119       7     0.42380     3.12500    20.46800   114.89600
     357     119       7     0.42380     4.55800    20.27200   115.33100
     358     120       8    -0.84760    16.37300    24.02000   109.31500
     359     120       7     0.42380    17.02700    23.33300   109.54500
     360     120       7     0.42380    16.83700    24.67000   108.76100
     361     121       8    -0.84760    13.52000    24.79400    73.49200
     362     121       7     0.42380    13.19100    25.68300    73.68700
     363     121       7     0.42380    13.35600    24.21800    74.25300
     364     122       8    -0.84760     1.29500    28.32100    70.41500
     365     122       7     0.42380     0.31300    28.28100    70.44300
     366     122       7     0.42380     1.59800    27.41900    70.66300
     367     123       8    -0.84760     3.01000     6.48500    67.94000
     368     123       7     0.42380     2.76700     6.53600    66.96100
     369     123       7     0.42380     3.71000     7.15500    67.98000
     370     124       8    -0.84760     7.21100    19.75800    77.73500
     371     124       7     0.42380     7.81700    20.41800    77.35700
     372     124       7     0.42380     6.61500    19.43600    76.98800
     373     125       8    -0.84760    13.63600    24.76100    97.18500
     374     125       7     0.42380    13.53900    25.46400    97.83400
     375     125       7     0.42380    13.99300    24.01300    97.64400
     376     126       8    -0.84760     3.13400    15.34300    94.77400
     377     126       7     0.42380     2.57900    15.10700    95.52300
     378     126       7     0.42380     3.90700    14.84900    94.90300
     379     127       8    -0.84760    23.42400    20.92900   106.02400
     380     127       7     0.42380    22.41000    20.88600   105.77100
     381     127       7     0.42380    23.59500    19.96300   106.22900
     382     128       8    -0.84760     5.47900    21.19000    87.78700
     383     128       7     0.42380     4.91800    21.90600    88.04600
     384     128       7     0.42380     5.49600    20.51100    88.50700
     385     129       8    -0.84760     1.72900    22.71100   111.25600
     386     129       7     0.42380     1.93500    23.62800   111.00600
     387     129       7     0.42380     2.65900    22.35100   111.42500
     388     130       8    -0.84760    16.49200    22.70300    64.18200
     389     130       7     0.42380    16.66300    23.18100    65.02200
     390     130       7     0.42380    16.72700    23.36500    63.48600
     391     131       8    -0.84760    13.84000    22.52000    63.14800
     392     131       7     0.42380    13.26500    22.77500    63.86200
     393     131       7     0.42380    14.72800    22.70400    63.47400
     394     132       8    -0.84760     9.82500    28.84100    90.55100
     395     132       7     0.42380    10.71500    28.71800    90.08600
     396     132       7     0.42380     9.49700    27.97100    90.63900
     397     133       8    -0.84760     8.68900    18.46500    91.39200
     398     133       7     0.42380     8.26800    18.07000    90.61000
     399     133       7     0.42380     8.71700    17.75100    92.04100
     400     134       8    -0.84760    10.73800    21.53700   101.40900
     401     134       7     0.42380    11.14600    21.04000   100.66800
     402     134       7     0.42380     9.87700    21.78000   101.11200
     403     135       8    -0.84760    15.62600    27.26800    91.80200
     404     135       7     0.42380    14.75300    27.03600    91.32800
     405     135       7     0.42380    15.36800    27.92000    92.43300