LAMMPS data file. CGCMM style. atom_style full generated by VMD/TopoTools v1.1 on Sun Nov 18 21:16:44 +0800 2012
 1482 atoms
 2134 bonds
 0 angles
 0 dihedrals
 0 impropers
 1 atom types
 1 bond types
 0 angle types
 0 dihedral types
 0 improper types
 0.000000 0.000000  xlo xhi
 0.000000 0.000000  ylo yhi
 0.000000 0.000000  zlo zhi

# Pair Coeffs
#
# 1  C

# Bond Coeffs
#
# 1  

 Masses

 1 12.010700 # C

 Atoms

1 1 1 0.000000 23.858000 15.011800 60.492599 # C 
2 1 1 0.000000 23.190001 15.506400 61.495098 # C 
3 1 1 0.000000 22.532000 16.680099 61.495201 # C 
4 1 1 0.000000 22.462400 17.549299 60.503502 # C 
5 1 1 0.000000 20.669100 18.663300 61.329899 # C 
6 1 1 0.000000 19.410200 19.111200 61.317600 # C 
7 1 1 0.000000 16.796000 18.785801 60.279099 # C 
8 1 1 0.000000 16.479300 18.341499 61.484600 # C 
9 1 1 0.000000 15.285700 17.629900 61.497398 # C 
10 1 1 0.000000 14.739200 17.588301 60.290001 # C 
11 1 1 0.000000 13.194300 15.467100 61.337002 # C 
12 1 1 0.000000 12.994300 14.152300 61.398102 # C 
13 1 1 0.000000 13.010700 12.021200 60.477798 # C 
14 1 1 0.000000 13.657200 11.498700 61.464298 # C 
15 1 1 0.000000 14.321300 10.319400 61.429901 # C 
16 1 1 0.000000 16.274799 8.397600 61.324001 # C 
17 1 1 0.000000 17.529600 7.934800 61.307999 # C 
18 1 1 0.000000 20.124800 8.215700 60.247501 # C 
19 1 1 0.000000 20.437901 8.664700 61.460800 # C 
20 1 1 0.000000 21.630100 9.378200 61.459400 # C 
21 1 1 0.000000 23.719299 11.572400 61.289700 # C 
22 1 1 0.000000 23.966900 12.883300 61.315701 # C 
23 1 1 0.000000 23.876400 13.527300 62.456001 # C 
24 1 1 0.000000 23.503300 14.839600 62.592300 # C 
25 1 1 0.000000 23.320700 15.524900 63.756599 # C 
26 1 1 0.000000 22.602699 16.728100 63.774899 # C 
27 1 1 0.000000 22.113600 17.249300 62.605701 # C 
28 1 1 0.000000 21.168200 18.218000 62.456001 # C 
29 1 1 0.000000 20.532801 18.531401 63.684101 # C 
30 1 1 0.000000 19.167000 18.897301 63.684101 # C 
31 1 1 0.000000 18.547899 18.957399 62.455101 # C 
32 1 1 0.000000 17.157700 18.704201 62.552299 # C 
33 1 1 0.000000 16.387199 18.531401 63.684101 # C 
34 1 1 0.000000 15.184300 17.761400 63.721901 # C 
35 1 1 0.000000 14.657000 17.192499 62.578899 # C 
36 1 1 0.000000 13.752600 16.121599 62.480400 # C 
37 1 1 0.000000 13.486100 15.563600 63.713799 # C 
38 1 1 0.000000 13.141300 14.216200 63.736801 # C 
39 1 1 0.000000 13.142300 13.508500 62.566002 # C 
40 1 1 0.000000 13.362600 12.162400 62.577499 # C 
41 1 1 0.000000 13.455900 11.454500 63.684101 # C 
42 1 1 0.000000 14.162900 10.230000 63.684101 # C 
43 1 1 0.000000 14.708400 9.737700 62.543098 # C 
44 1 1 0.000000 15.751800 8.836600 62.456001 # C 
45 1 1 0.000000 16.387199 8.523200 63.684101 # C 
46 1 1 0.000000 17.753000 8.157300 63.684101 # C 
47 1 1 0.000000 18.376900 8.084800 62.455601 # C 
48 1 1 0.000000 19.765301 8.330500 62.548100 # C 
49 1 1 0.000000 20.532801 8.523200 63.684101 # C 
50 1 1 0.000000 21.757299 9.230200 63.684101 # C 
51 1 1 0.000000 22.280600 9.809700 62.537899 # C 
52 1 1 0.000000 23.189899 10.895600 62.445900 # C 
53 1 1 0.000000 23.464100 11.454500 63.684101 # C 
54 1 1 0.000000 23.830000 12.820300 63.684101 # C 
55 1 1 0.000000 23.876400 13.527300 64.912102 # C 
56 1 1 0.000000 23.691799 14.929200 64.912102 # C 
57 1 1 0.000000 23.464100 15.600100 66.140099 # C 
58 1 1 0.000000 22.757099 16.824600 66.140099 # C 
59 1 1 0.000000 22.249100 17.326401 64.954002 # C 
60 1 1 0.000000 21.168200 18.218000 64.912102 # C 
61 1 1 0.000000 20.532801 18.531401 66.140099 # C 
62 1 1 0.000000 19.167000 18.897301 66.140099 # C 
63 1 1 0.000000 18.459999 18.943701 64.912102 # C 
64 1 1 0.000000 17.058100 18.759100 64.912102 # C 
65 1 1 0.000000 16.387199 18.531401 66.140099 # C 
66 1 1 0.000000 15.162700 17.824400 66.140099 # C 
67 1 1 0.000000 14.630100 17.357201 64.912102 # C 
68 1 1 0.000000 13.769300 16.235500 64.912102 # C 
69 1 1 0.000000 13.455900 15.600100 66.140099 # C 
70 1 1 0.000000 13.090000 14.234300 66.140099 # C 
71 1 1 0.000000 13.043600 13.527300 64.912102 # C 
72 1 1 0.000000 13.228200 12.125400 64.912102 # C 
73 1 1 0.000000 13.455900 11.454500 66.140099 # C 
74 1 1 0.000000 14.162900 10.230000 66.140099 # C 
75 1 1 0.000000 14.630100 9.697400 64.912102 # C 
76 1 1 0.000000 15.751800 8.836600 64.912102 # C 
77 1 1 0.000000 16.387199 8.523200 66.140099 # C 
78 1 1 0.000000 17.753000 8.157300 66.140099 # C 
79 1 1 0.000000 18.459999 8.110900 64.912102 # C 
80 1 1 0.000000 19.861900 8.295500 64.912102 # C 
81 1 1 0.000000 20.532801 8.523200 66.140099 # C 
82 1 1 0.000000 21.757299 9.230200 66.140099 # C 
83 1 1 0.000000 22.289900 9.697400 64.912102 # C 
84 1 1 0.000000 23.150700 10.819100 64.912102 # C 
85 1 1 0.000000 23.464100 11.454500 66.140099 # C 
86 1 1 0.000000 23.830000 12.820300 66.140099 # C 
87 1 1 0.000000 23.876400 13.527300 67.368103 # C 
88 1 1 0.000000 23.691799 14.929200 67.368103 # C 
89 1 1 0.000000 23.464100 15.600100 68.596199 # C 
90 1 1 0.000000 22.757099 16.824600 68.596199 # C 
91 1 1 0.000000 22.289900 17.357201 67.368103 # C 
92 1 1 0.000000 21.168200 18.218000 67.368103 # C 
93 1 1 0.000000 20.532801 18.531401 68.596199 # C 
94 1 1 0.000000 19.167000 18.897301 68.596199 # C 
95 1 1 0.000000 18.459999 18.943701 67.368103 # C 
96 1 1 0.000000 17.058100 18.759100 67.368103 # C 
97 1 1 0.000000 16.387199 18.531401 68.596199 # C 
98 1 1 0.000000 15.162700 17.824400 68.596199 # C 
99 1 1 0.000000 14.630100 17.357201 67.368103 # C 
100 1 1 0.000000 13.769300 16.235500 67.368103 # C 
101 1 1 0.000000 13.455900 15.600100 68.596199 # C 
102 1 1 0.000000 13.090000 14.234300 68.596199 # C 
103 1 1 0.000000 13.043600 13.527300 67.368103 # C 
104 1 1 0.000000 13.228200 12.125400 67.368103 # C 
105 1 1 0.000000 13.455900 11.454500 68.596199 # C 
106 1 1 0.000000 14.162900 10.230000 68.596199 # C 
107 1 1 0.000000 14.630100 9.697400 67.368103 # C 
108 1 1 0.000000 15.751800 8.836600 67.368103 # C 
109 1 1 0.000000 16.387199 8.523200 68.596199 # C 
110 1 1 0.000000 17.753000 8.157300 68.596199 # C 
111 1 1 0.000000 18.459999 8.110900 67.368103 # C 
112 1 1 0.000000 19.861900 8.295500 67.368103 # C 
113 1 1 0.000000 20.532801 8.523200 68.596199 # C 
114 1 1 0.000000 21.757299 9.230200 68.596199 # C 
115 1 1 0.000000 22.289900 9.697400 67.368103 # C 
116 1 1 0.000000 23.150700 10.819100 67.368103 # C 
117 1 1 0.000000 23.464100 11.454500 68.596199 # C 
118 1 1 0.000000 23.830000 12.820300 68.596199 # C 
119 1 1 0.000000 23.876400 13.527300 69.824203 # C 
120 1 1 0.000000 23.691799 14.929200 69.824203 # C 
121 1 1 0.000000 23.464100 15.600100 71.052200 # C 
122 1 1 0.000000 22.757099 16.824600 71.052200 # C 
123 1 1 0.000000 22.289900 17.357201 69.824203 # C 
124 1 1 0.000000 21.168200 18.218000 69.824203 # C 
125 1 1 0.000000 20.479401 18.413601 70.972000 # C 
126 1 1 0.000000 19.131100 18.799299 70.992996 # C 
127 1 1 0.000000 18.459999 18.943701 69.824203 # C 
128 1 1 0.000000 17.058100 18.759100 69.824203 # C 
129 1 1 0.000000 16.387199 18.531401 71.052200 # C 
130 1 1 0.000000 15.162700 17.824400 71.052200 # C 
131 1 1 0.000000 14.630100 17.357201 69.824203 # C 
132 1 1 0.000000 13.769300 16.235500 69.824203 # C 
133 1 1 0.000000 13.455900 15.600100 71.052200 # C 
134 1 1 0.000000 13.090000 14.234300 71.052200 # C 
135 1 1 0.000000 13.043600 13.527300 69.824203 # C 
136 1 1 0.000000 13.228200 12.125400 69.824203 # C 
137 1 1 0.000000 13.455900 11.454500 71.052200 # C 
138 1 1 0.000000 14.145900 10.272800 70.982697 # C 
139 1 1 0.000000 14.630100 9.697400 69.824203 # C 
140 1 1 0.000000 15.750000 8.891600 69.768402 # C 
141 1 1 0.000000 16.356501 8.749100 70.952797 # C 
142 1 1 0.000000 17.705799 8.467500 70.948898 # C 
143 1 1 0.000000 18.437201 8.266000 69.790703 # C 
144 1 1 0.000000 19.832300 8.448300 69.809998 # C 
145 1 1 0.000000 20.409901 8.842700 71.022499 # C 
146 1 1 0.000000 21.658001 9.453100 71.045197 # C 
147 1 1 0.000000 22.289900 9.697400 69.824203 # C 
148 1 1 0.000000 23.150700 10.819100 69.824203 # C 
149 1 1 0.000000 23.464100 11.454500 71.052200 # C 
150 1 1 0.000000 23.830000 12.820300 71.052200 # C 
151 1 1 0.000000 23.876400 13.527300 72.280197 # C 
152 1 1 0.000000 23.691799 14.929200 72.280197 # C 
153 1 1 0.000000 23.464100 15.600100 73.508301 # C 
154 1 1 0.000000 22.670000 16.694901 73.378304 # C 
155 1 1 0.000000 22.211599 17.207199 72.199203 # C 
156 1 1 0.000000 21.055401 17.969400 72.112198 # C 
157 1 1 0.000000 20.343700 18.166700 73.213898 # C 
158 1 1 0.000000 19.087799 18.592800 73.279900 # C 
159 1 1 0.000000 18.415400 18.794300 72.161301 # C 
160 1 1 0.000000 17.058100 18.759100 72.280197 # C 
161 1 1 0.000000 16.405500 18.502399 73.497299 # C 
162 1 1 0.000000 15.162700 17.824400 73.508301 # C 
163 1 1 0.000000 14.630100 17.357201 72.280197 # C 
164 1 1 0.000000 13.769300 16.235500 72.280197 # C 
165 1 1 0.000000 13.455900 15.600100 73.508301 # C 
166 1 1 0.000000 13.111700 14.186500 73.466003 # C 
167 1 1 0.000000 13.043600 13.527300 72.280197 # C 
168 1 1 0.000000 13.221900 12.143300 72.227303 # C 
169 1 1 0.000000 13.330600 11.427500 73.355499 # C 
170 1 1 0.000000 13.997200 10.268300 73.310402 # C 
171 1 1 0.000000 14.553400 9.828800 72.146500 # C 
172 1 1 0.000000 15.671400 9.096300 72.095901 # C 
173 1 1 0.000000 16.181801 8.891400 73.281197 # C 
174 1 1 0.000000 17.510300 8.724900 73.262497 # C 
175 1 1 0.000000 18.308399 8.642100 72.147499 # C 
176 1 1 0.000000 19.668400 8.833400 72.200996 # C 
177 1 1 0.000000 20.202900 9.151300 73.432800 # C 
178 1 1 0.000000 21.406601 9.803200 73.450897 # C 
179 1 1 0.000000 22.042999 10.056200 72.251099 # C 
180 1 1 0.000000 22.981600 11.066700 72.257004 # C 
181 1 1 0.000000 23.209200 11.828300 73.401604 # C 
182 1 1 0.000000 23.732800 13.063800 73.471199 # C 
183 1 1 0.000000 23.920500 13.846100 74.606796 # C 
184 1 1 0.000000 23.850000 15.145600 74.727798 # C 
185 1 1 0.000000 22.102100 17.289000 74.416801 # C 
186 1 1 0.000000 20.967600 17.906700 74.313103 # C 
187 1 1 0.000000 20.549000 18.466000 75.406197 # C 
188 1 1 0.000000 18.503500 18.733299 74.469902 # C 
189 1 1 0.000000 17.171801 18.733000 74.618103 # C 
190 1 1 0.000000 14.610600 17.187000 74.668800 # C 
191 1 1 0.000000 13.841600 16.014700 74.638298 # C 
192 1 1 0.000000 12.899200 13.299600 74.530602 # C 
193 1 1 0.000000 12.928300 11.932700 74.528801 # C 
194 1 1 0.000000 14.227700 9.592700 74.435097 # C 
195 1 1 0.000000 15.367200 8.918900 74.387398 # C 
196 1 1 0.000000 18.083700 8.637800 74.432999 # C 
197 1 1 0.000000 19.414200 8.811600 74.508400 # C 
198 1 1 0.000000 20.067200 8.232100 75.498199 # C 
199 1 1 0.000000 21.999599 10.339700 74.574799 # C 
200 1 1 0.000000 22.814301 11.407300 74.576797 # C 
201 1 1 0.000000 4.970000 0.000000 60.000000 # C 
202 1 1 0.000000 6.390000 0.000000 60.000000 # C 
203 1 1 0.000000 4.260000 1.229800 60.000000 # C 
204 1 1 0.000000 7.100000 1.229800 60.000000 # C 
205 1 1 0.000000 9.230000 0.000000 60.000000 # C 
206 1 1 0.000000 10.650000 0.000000 60.000000 # C 
207 1 1 0.000000 8.520000 1.229800 60.000000 # C 
208 1 1 0.000000 11.360000 1.229800 60.000000 # C 
209 1 1 0.000000 13.490000 0.000000 60.000000 # C 
210 1 1 0.000000 14.910000 0.000000 60.000000 # C 
211 1 1 0.000000 12.780000 1.229800 60.000000 # C 
212 1 1 0.000000 15.620000 1.229800 60.000000 # C 
213 1 1 0.000000 17.750000 0.000000 60.000000 # C 
214 1 1 0.000000 19.170000 0.000000 60.000000 # C 
215 1 1 0.000000 17.040001 1.229800 60.000000 # C 
216 1 1 0.000000 19.879999 1.229800 60.000000 # C 
217 1 1 0.000000 22.010000 0.000000 60.000000 # C 
218 1 1 0.000000 23.430000 0.000000 60.000000 # C 
219 1 1 0.000000 21.299999 1.229800 60.000000 # C 
220 1 1 0.000000 24.139999 1.229800 60.000000 # C 
221 1 1 0.000000 26.270000 0.000000 60.000000 # C 
222 1 1 0.000000 27.690001 0.000000 60.000000 # C 
223 1 1 0.000000 25.559999 1.229800 60.000000 # C 
224 1 1 0.000000 28.400000 1.229800 60.000000 # C 
225 1 1 0.000000 30.530001 0.000000 60.000000 # C 
226 1 1 0.000000 31.950001 0.000000 60.000000 # C 
227 1 1 0.000000 29.820000 1.229800 60.000000 # C 
228 1 1 0.000000 32.660000 1.229800 60.000000 # C 
229 1 1 0.000000 4.970000 2.459500 60.000000 # C 
230 1 1 0.000000 6.390000 2.459500 60.000000 # C 
231 1 1 0.000000 4.260000 3.689300 60.000000 # C 
232 1 1 0.000000 7.100000 3.689300 60.000000 # C 
233 1 1 0.000000 9.230000 2.459500 60.000000 # C 
234 1 1 0.000000 10.650000 2.459500 60.000000 # C 
235 1 1 0.000000 8.520000 3.689300 60.000000 # C 
236 1 1 0.000000 11.360000 3.689300 60.000000 # C 
237 1 1 0.000000 13.490000 2.459500 60.000000 # C 
238 1 1 0.000000 14.910000 2.459500 60.000000 # C 
239 1 1 0.000000 12.780000 3.689300 60.000000 # C 
240 1 1 0.000000 15.620000 3.689300 60.000000 # C 
241 1 1 0.000000 17.750000 2.459500 60.000000 # C 
242 1 1 0.000000 19.170000 2.459500 60.000000 # C 
243 1 1 0.000000 17.040001 3.689300 60.000000 # C 
244 1 1 0.000000 19.879999 3.689300 60.000000 # C 
245 1 1 0.000000 22.010000 2.459500 60.000000 # C 
246 1 1 0.000000 23.430000 2.459500 60.000000 # C 
247 1 1 0.000000 21.299999 3.689300 60.000000 # C 
248 1 1 0.000000 24.139999 3.689300 60.000000 # C 
249 1 1 0.000000 26.270000 2.459500 60.000000 # C 
250 1 1 0.000000 27.690001 2.459500 60.000000 # C 
251 1 1 0.000000 25.559999 3.689300 60.000000 # C 
252 1 1 0.000000 28.400000 3.689300 60.000000 # C 
253 1 1 0.000000 30.530001 2.459500 60.000000 # C 
254 1 1 0.000000 31.950001 2.459500 60.000000 # C 
255 1 1 0.000000 29.820000 3.689300 60.000000 # C 
256 1 1 0.000000 32.660000 3.689300 60.000000 # C 
257 1 1 0.000000 4.970000 4.919000 60.000000 # C 
258 1 1 0.000000 6.390000 4.919000 60.000000 # C 
259 1 1 0.000000 4.260000 6.148800 60.000000 # C 
260 1 1 0.000000 7.100000 6.148800 60.000000 # C 
261 1 1 0.000000 9.230000 4.919000 60.000000 # C 
262 1 1 0.000000 10.650000 4.919000 60.000000 # C 
263 1 1 0.000000 8.520000 6.148800 60.000000 # C 
264 1 1 0.000000 11.360000 6.148800 60.000000 # C 
265 1 1 0.000000 13.490000 4.919000 60.000000 # C 
266 1 1 0.000000 14.910000 4.919000 60.000000 # C 
267 1 1 0.000000 12.758900 6.103500 59.968498 # C 
268 1 1 0.000000 15.643000 6.101200 60.067101 # C 
269 1 1 0.000000 17.762100 4.882100 60.000099 # C 
270 1 1 0.000000 19.172899 4.853900 59.982498 # C 
271 1 1 0.000000 17.075100 6.096000 60.087601 # C 
272 1 1 0.000000 19.947800 5.988600 59.960899 # C 
273 1 1 0.000000 22.010000 4.919000 60.000000 # C 
274 1 1 0.000000 23.430000 4.919000 60.000000 # C 
275 1 1 0.000000 21.335400 6.066000 59.935299 # C 
276 1 1 0.000000 24.139999 6.148800 60.000000 # C 
277 1 1 0.000000 26.270000 4.919000 60.000000 # C 
278 1 1 0.000000 27.690001 4.919000 60.000000 # C 
279 1 1 0.000000 25.559999 6.148800 60.000000 # C 
280 1 1 0.000000 28.400000 6.148800 60.000000 # C 
281 1 1 0.000000 30.530001 4.919000 60.000000 # C 
282 1 1 0.000000 31.950001 4.919000 60.000000 # C 
283 1 1 0.000000 29.820000 6.148800 60.000000 # C 
284 1 1 0.000000 32.660000 6.148800 60.000000 # C 
285 1 1 0.000000 4.970000 7.378500 60.000000 # C 
286 1 1 0.000000 6.390000 7.378500 60.000000 # C 
287 1 1 0.000000 4.260000 8.608300 60.000000 # C 
288 1 1 0.000000 7.100000 8.608300 60.000000 # C 
289 1 1 0.000000 9.230000 7.378500 60.000000 # C 
290 1 1 0.000000 10.650000 7.378500 60.000000 # C 
291 1 1 0.000000 8.520000 8.608300 60.000000 # C 
292 1 1 0.000000 11.313400 8.578900 59.952499 # C 
293 1 1 0.000000 13.447200 7.285700 59.935902 # C 
294 1 1 0.000000 14.860100 7.252200 60.050800 # C 
295 1 1 0.000000 12.680000 8.472500 59.897701 # C 
296 1 1 0.000000 15.313600 8.458000 60.401798 # C 
297 1 1 0.000000 17.980600 7.156800 60.312302 # C 
298 1 1 0.000000 19.311399 7.131600 60.160400 # C 
299 1 1 0.000000 22.059601 7.255600 59.904499 # C 
300 1 1 0.000000 23.430000 7.378500 60.000000 # C 
301 1 1 0.000000 24.139999 8.608300 60.000000 # C 
302 1 1 0.000000 26.270000 7.378500 60.000000 # C 
303 1 1 0.000000 27.690001 7.378500 60.000000 # C 
304 1 1 0.000000 25.559999 8.608300 60.000000 # C 
305 1 1 0.000000 28.400000 8.608300 60.000000 # C 
306 1 1 0.000000 30.530001 7.378500 60.000000 # C 
307 1 1 0.000000 31.950001 7.378500 60.000000 # C 
308 1 1 0.000000 29.820000 8.608300 60.000000 # C 
309 1 1 0.000000 32.660000 8.608300 60.000000 # C 
310 1 1 0.000000 4.970000 9.838000 60.000000 # C 
311 1 1 0.000000 6.390000 9.838000 60.000000 # C 
312 1 1 0.000000 4.260000 11.067800 60.000000 # C 
313 1 1 0.000000 7.100000 11.067800 60.000000 # C 
314 1 1 0.000000 9.230000 9.838000 60.000000 # C 
315 1 1 0.000000 10.650000 9.838000 60.000000 # C 
316 1 1 0.000000 8.520000 11.067800 60.000000 # C 
317 1 1 0.000000 11.259800 11.041800 59.960800 # C 
318 1 1 0.000000 13.243300 9.678300 59.974998 # C 
319 1 1 0.000000 14.482800 9.517000 60.394001 # C 
320 1 1 0.000000 12.561600 10.882600 60.003899 # C 
321 1 1 0.000000 23.466700 9.698000 60.135700 # C 
322 1 1 0.000000 24.150499 10.834300 60.256401 # C 
323 1 1 0.000000 26.270000 9.838000 60.000000 # C 
324 1 1 0.000000 27.690001 9.838000 60.000000 # C 
325 1 1 0.000000 25.548300 11.053200 60.037201 # C 
326 1 1 0.000000 28.400000 11.067800 60.000000 # C 
327 1 1 0.000000 30.530001 9.838000 60.000000 # C 
328 1 1 0.000000 31.950001 9.838000 60.000000 # C 
329 1 1 0.000000 29.820000 11.067800 60.000000 # C 
330 1 1 0.000000 32.660000 11.067800 60.000000 # C 
331 1 1 0.000000 4.970000 12.297600 60.000000 # C 
332 1 1 0.000000 6.390000 12.297600 60.000000 # C 
333 1 1 0.000000 4.260000 13.527300 60.000000 # C 
334 1 1 0.000000 7.100000 13.527300 60.000000 # C 
335 1 1 0.000000 9.230000 12.297600 60.000000 # C 
336 1 1 0.000000 10.650000 12.297600 60.000000 # C 
337 1 1 0.000000 8.520000 13.527300 60.000000 # C 
338 1 1 0.000000 11.283500 13.525500 60.043999 # C 
339 1 1 0.000000 12.524000 13.281300 60.481300 # C 
340 1 1 0.000000 24.389999 13.760500 60.418598 # C 
341 1 1 0.000000 26.270000 12.297600 60.000000 # C 
342 1 1 0.000000 27.690001 12.297600 60.000000 # C 
343 1 1 0.000000 25.636801 13.523200 60.005501 # C 
344 1 1 0.000000 28.400000 13.527300 60.000000 # C 
345 1 1 0.000000 30.530001 12.297600 60.000000 # C 
346 1 1 0.000000 31.950001 12.297600 60.000000 # C 
347 1 1 0.000000 29.820000 13.527300 60.000000 # C 
348 1 1 0.000000 32.660000 13.527300 60.000000 # C 
349 1 1 0.000000 4.970000 14.757100 60.000000 # C 
350 1 1 0.000000 6.390000 14.757100 60.000000 # C 
351 1 1 0.000000 4.260000 15.986800 60.000000 # C 
352 1 1 0.000000 7.100000 15.986800 60.000000 # C 
353 1 1 0.000000 9.230000 14.757100 60.000000 # C 
354 1 1 0.000000 10.650000 14.757100 60.000000 # C 
355 1 1 0.000000 8.520000 15.986800 60.000000 # C 
356 1 1 0.000000 11.359600 16.002001 60.060200 # C 
357 1 1 0.000000 12.736900 16.242599 60.326199 # C 
358 1 1 0.000000 24.293400 16.159700 60.069302 # C 
359 1 1 0.000000 26.270000 14.757100 60.000000 # C 
360 1 1 0.000000 27.690001 14.757100 60.000000 # C 
361 1 1 0.000000 25.559999 15.986800 60.000000 # C 
362 1 1 0.000000 28.400000 15.986800 60.000000 # C 
363 1 1 0.000000 30.530001 14.757100 60.000000 # C 
364 1 1 0.000000 31.950001 14.757100 60.000000 # C 
365 1 1 0.000000 29.820000 15.986800 60.000000 # C 
366 1 1 0.000000 32.660000 15.986800 60.000000 # C 
367 1 1 0.000000 4.970000 17.216600 60.000000 # C 
368 1 1 0.000000 6.390000 17.216600 60.000000 # C 
369 1 1 0.000000 4.260000 18.446301 60.000000 # C 
370 1 1 0.000000 7.100000 18.446301 60.000000 # C 
371 1 1 0.000000 9.230000 17.216600 60.000000 # C 
372 1 1 0.000000 10.650000 17.216600 60.000000 # C 
373 1 1 0.000000 8.520000 18.446301 60.000000 # C 
374 1 1 0.000000 11.360000 18.446301 60.000000 # C 
375 1 1 0.000000 13.392000 17.406000 60.198700 # C 
376 1 1 0.000000 12.727300 18.526899 60.008301 # C 
377 1 1 0.000000 23.665701 17.378099 60.062698 # C 
378 1 1 0.000000 21.670799 18.634501 60.469299 # C 
379 1 1 0.000000 24.218300 18.577101 59.953400 # C 
380 1 1 0.000000 26.270000 17.216600 60.000000 # C 
381 1 1 0.000000 27.690001 17.216600 60.000000 # C 
382 1 1 0.000000 25.559999 18.446301 60.000000 # C 
383 1 1 0.000000 28.400000 18.446301 60.000000 # C 
384 1 1 0.000000 30.530001 17.216600 60.000000 # C 
385 1 1 0.000000 31.950001 17.216600 60.000000 # C 
386 1 1 0.000000 29.820000 18.446301 60.000000 # C 
387 1 1 0.000000 32.660000 18.446301 60.000000 # C 
388 1 1 0.000000 4.970000 19.676100 60.000000 # C 
389 1 1 0.000000 6.390000 19.676100 60.000000 # C 
390 1 1 0.000000 4.260000 20.905899 60.000000 # C 
391 1 1 0.000000 7.100000 20.905899 60.000000 # C 
392 1 1 0.000000 9.230000 19.676100 60.000000 # C 
393 1 1 0.000000 10.650000 19.676100 60.000000 # C 
394 1 1 0.000000 8.520000 20.905899 60.000000 # C 
395 1 1 0.000000 11.360000 20.905899 60.000000 # C 
396 1 1 0.000000 13.490000 19.676100 60.000000 # C 
397 1 1 0.000000 14.865400 19.752100 59.946098 # C 
398 1 1 0.000000 12.780000 20.905899 60.000000 # C 
399 1 1 0.000000 15.620000 20.905899 60.000000 # C 
400 1 1 0.000000 17.627100 19.862400 60.187500 # C 
401 1 1 0.000000 18.962799 19.872299 60.321201 # C 
402 1 1 0.000000 16.993099 20.996000 60.006500 # C 
403 1 1 0.000000 19.862801 20.934401 60.091202 # C 
404 1 1 0.000000 22.098000 19.824600 60.058300 # C 
405 1 1 0.000000 23.489500 19.781601 59.957199 # C 
406 1 1 0.000000 21.291201 20.950701 60.065601 # C 
407 1 1 0.000000 24.166401 20.966299 59.966702 # C 
408 1 1 0.000000 26.270000 19.676100 60.000000 # C 
409 1 1 0.000000 27.690001 19.676100 60.000000 # C 
410 1 1 0.000000 25.559999 20.905899 60.000000 # C 
411 1 1 0.000000 28.400000 20.905899 60.000000 # C 
412 1 1 0.000000 30.530001 19.676100 60.000000 # C 
413 1 1 0.000000 31.950001 19.676100 60.000000 # C 
414 1 1 0.000000 29.820000 20.905899 60.000000 # C 
415 1 1 0.000000 32.660000 20.905899 60.000000 # C 
416 1 1 0.000000 4.970000 22.135599 60.000000 # C 
417 1 1 0.000000 6.390000 22.135599 60.000000 # C 
418 1 1 0.000000 4.260000 23.365400 60.000000 # C 
419 1 1 0.000000 7.100000 23.365400 60.000000 # C 
420 1 1 0.000000 9.230000 22.135599 60.000000 # C 
421 1 1 0.000000 10.650000 22.135599 60.000000 # C 
422 1 1 0.000000 8.520000 23.365400 60.000000 # C 
423 1 1 0.000000 11.360000 23.365400 60.000000 # C 
424 1 1 0.000000 13.490000 22.135599 60.000000 # C 
425 1 1 0.000000 14.910000 22.135599 60.000000 # C 
426 1 1 0.000000 12.780000 23.365400 60.000000 # C 
427 1 1 0.000000 15.620000 23.365400 60.000000 # C 
428 1 1 0.000000 17.750000 22.135599 60.000000 # C 
429 1 1 0.000000 19.170000 22.135599 60.000000 # C 
430 1 1 0.000000 17.040001 23.365400 60.000000 # C 
431 1 1 0.000000 19.879999 23.365400 60.000000 # C 
432 1 1 0.000000 22.010000 22.135599 60.000000 # C 
433 1 1 0.000000 23.430500 22.156799 59.986000 # C 
434 1 1 0.000000 21.299999 23.365400 60.000000 # C 
435 1 1 0.000000 24.139999 23.365400 60.000000 # C 
436 1 1 0.000000 26.270000 22.135599 60.000000 # C 
437 1 1 0.000000 27.690001 22.135599 60.000000 # C 
438 1 1 0.000000 25.559999 23.365400 60.000000 # C 
439 1 1 0.000000 28.400000 23.365400 60.000000 # C 
440 1 1 0.000000 30.530001 22.135599 60.000000 # C 
441 1 1 0.000000 31.950001 22.135599 60.000000 # C 
442 1 1 0.000000 29.820000 23.365400 60.000000 # C 
443 1 1 0.000000 32.660000 23.365400 60.000000 # C 
444 1 1 0.000000 4.970000 24.595100 60.000000 # C 
445 1 1 0.000000 6.390000 24.595100 60.000000 # C 
446 1 1 0.000000 4.260000 25.824900 60.000000 # C 
447 1 1 0.000000 7.100000 25.824900 60.000000 # C 
448 1 1 0.000000 9.230000 24.595100 60.000000 # C 
449 1 1 0.000000 10.650000 24.595100 60.000000 # C 
450 1 1 0.000000 8.520000 25.824900 60.000000 # C 
451 1 1 0.000000 11.360000 25.824900 60.000000 # C 
452 1 1 0.000000 13.490000 24.595100 60.000000 # C 
453 1 1 0.000000 14.910000 24.595100 60.000000 # C 
454 1 1 0.000000 12.780000 25.824900 60.000000 # C 
455 1 1 0.000000 15.620000 25.824900 60.000000 # C 
456 1 1 0.000000 17.750000 24.595100 60.000000 # C 
457 1 1 0.000000 19.170000 24.595100 60.000000 # C 
458 1 1 0.000000 17.040001 25.824900 60.000000 # C 
459 1 1 0.000000 19.879999 25.824900 60.000000 # C 
460 1 1 0.000000 22.010000 24.595100 60.000000 # C 
461 1 1 0.000000 23.430000 24.595100 60.000000 # C 
462 1 1 0.000000 21.299999 25.824900 60.000000 # C 
463 1 1 0.000000 24.139999 25.824900 60.000000 # C 
464 1 1 0.000000 26.270000 24.595100 60.000000 # C 
465 1 1 0.000000 27.690001 24.595100 60.000000 # C 
466 1 1 0.000000 25.559999 25.824900 60.000000 # C 
467 1 1 0.000000 28.400000 25.824900 60.000000 # C 
468 1 1 0.000000 30.530001 24.595100 60.000000 # C 
469 1 1 0.000000 31.950001 24.595100 60.000000 # C 
470 1 1 0.000000 29.820000 25.824900 60.000000 # C 
471 1 1 0.000000 32.660000 25.824900 60.000000 # C 
472 1 1 0.000000 4.970000 27.054600 60.000000 # C 
473 1 1 0.000000 6.390000 27.054600 60.000000 # C 
474 1 1 0.000000 4.200000 28.388300 60.000000 # C 
475 1 1 0.000000 7.100000 28.284401 60.000000 # C 
476 1 1 0.000000 9.230000 27.054600 60.000000 # C 
477 1 1 0.000000 10.650000 27.054600 60.000000 # C 
478 1 1 0.000000 8.520000 28.284401 60.000000 # C 
479 1 1 0.000000 11.360000 28.284401 60.000000 # C 
480 1 1 0.000000 13.490000 27.054600 60.000000 # C 
481 1 1 0.000000 14.910000 27.054600 60.000000 # C 
482 1 1 0.000000 12.780000 28.284401 60.000000 # C 
483 1 1 0.000000 15.620000 28.284401 60.000000 # C 
484 1 1 0.000000 17.750000 27.054600 60.000000 # C 
485 1 1 0.000000 19.170000 27.054600 60.000000 # C 
486 1 1 0.000000 17.040001 28.284401 60.000000 # C 
487 1 1 0.000000 19.879999 28.284401 60.000000 # C 
488 1 1 0.000000 22.010000 27.054600 60.000000 # C 
489 1 1 0.000000 23.430000 27.054600 60.000000 # C 
490 1 1 0.000000 21.299999 28.284401 60.000000 # C 
491 1 1 0.000000 24.139999 28.284401 60.000000 # C 
492 1 1 0.000000 26.270000 27.054600 60.000000 # C 
493 1 1 0.000000 27.690001 27.054600 60.000000 # C 
494 1 1 0.000000 25.559999 28.284401 60.000000 # C 
495 1 1 0.000000 28.400000 28.284401 60.000000 # C 
496 1 1 0.000000 30.530001 27.054600 60.000000 # C 
497 1 1 0.000000 31.950001 27.054600 60.000000 # C 
498 1 1 0.000000 29.820000 28.284401 60.000000 # C 
499 1 1 0.000000 32.720001 28.388300 60.000000 # C 
500 1 1 0.000000 4.970000 0.000000 75.964302 # C 
501 1 1 0.000000 6.390000 0.000000 75.964302 # C 
502 1 1 0.000000 4.260000 1.229800 75.964302 # C 
503 1 1 0.000000 7.100000 1.229800 75.964302 # C 
504 1 1 0.000000 9.230000 0.000000 75.964302 # C 
505 1 1 0.000000 10.650000 0.000000 75.964302 # C 
506 1 1 0.000000 8.520000 1.229800 75.964302 # C 
507 1 1 0.000000 11.360000 1.229800 75.964302 # C 
508 1 1 0.000000 13.490000 0.000000 75.964302 # C 
509 1 1 0.000000 14.910000 0.000000 75.964302 # C 
510 1 1 0.000000 12.780000 1.229800 75.964302 # C 
511 1 1 0.000000 15.620000 1.229800 75.964302 # C 
512 1 1 0.000000 17.750000 0.000000 75.964302 # C 
513 1 1 0.000000 19.170000 0.000000 75.964302 # C 
514 1 1 0.000000 17.040001 1.229800 75.964302 # C 
515 1 1 0.000000 19.879999 1.229800 75.964302 # C 
516 1 1 0.000000 22.010000 0.000000 75.964302 # C 
517 1 1 0.000000 23.430000 0.000000 75.964302 # C 
518 1 1 0.000000 21.299999 1.229800 75.964302 # C 
519 1 1 0.000000 24.139999 1.229800 75.964302 # C 
520 1 1 0.000000 26.270000 0.000000 75.964302 # C 
521 1 1 0.000000 27.690001 0.000000 75.964302 # C 
522 1 1 0.000000 25.559999 1.229800 75.964302 # C 
523 1 1 0.000000 28.400000 1.229800 75.964302 # C 
524 1 1 0.000000 30.530001 0.000000 75.964302 # C 
525 1 1 0.000000 31.950001 0.000000 75.964302 # C 
526 1 1 0.000000 29.820000 1.229800 75.964302 # C 
527 1 1 0.000000 32.660000 1.229800 75.964302 # C 
528 1 1 0.000000 4.970000 2.459500 75.964302 # C 
529 1 1 0.000000 6.390000 2.459500 75.964302 # C 
530 1 1 0.000000 4.260000 3.689300 75.964302 # C 
531 1 1 0.000000 7.100000 3.689300 75.964302 # C 
532 1 1 0.000000 9.230000 2.459500 75.964302 # C 
533 1 1 0.000000 10.650000 2.459500 75.964302 # C 
534 1 1 0.000000 8.520000 3.689300 75.964302 # C 
535 1 1 0.000000 11.360000 3.689300 75.964302 # C 
536 1 1 0.000000 13.490000 2.459500 75.964302 # C 
537 1 1 0.000000 14.910000 2.459500 75.964302 # C 
538 1 1 0.000000 12.780000 3.689300 75.964302 # C 
539 1 1 0.000000 15.620000 3.689300 75.964302 # C 
540 1 1 0.000000 17.750000 2.459500 75.964302 # C 
541 1 1 0.000000 19.170000 2.459500 75.964302 # C 
542 1 1 0.000000 17.040001 3.689300 75.964302 # C 
543 1 1 0.000000 19.879999 3.689300 75.964302 # C 
544 1 1 0.000000 22.010000 2.459500 75.964302 # C 
545 1 1 0.000000 23.430000 2.459500 75.964302 # C 
546 1 1 0.000000 21.299999 3.689300 75.964302 # C 
547 1 1 0.000000 24.139999 3.689300 75.964302 # C 
548 1 1 0.000000 26.270000 2.459500 75.964302 # C 
549 1 1 0.000000 27.690001 2.459500 75.964302 # C 
550 1 1 0.000000 25.559999 3.689300 75.964302 # C 
551 1 1 0.000000 28.400000 3.689300 75.964302 # C 
552 1 1 0.000000 30.530001 2.459500 75.964302 # C 
553 1 1 0.000000 31.950001 2.459500 75.964302 # C 
554 1 1 0.000000 29.820000 3.689300 75.964302 # C 
555 1 1 0.000000 32.660000 3.689300 75.964302 # C 
556 1 1 0.000000 4.970000 4.919000 75.964302 # C 
557 1 1 0.000000 6.390000 4.919000 75.964302 # C 
558 1 1 0.000000 4.260000 6.148800 75.964302 # C 
559 1 1 0.000000 7.100000 6.148800 75.964302 # C 
560 1 1 0.000000 9.230000 4.919000 75.964302 # C 
561 1 1 0.000000 10.650000 4.919000 75.964302 # C 
562 1 1 0.000000 8.520000 6.148800 75.964302 # C 
563 1 1 0.000000 11.360000 6.148800 75.964302 # C 
564 1 1 0.000000 13.490000 4.919000 75.964302 # C 
565 1 1 0.000000 14.910000 4.919000 75.964302 # C 
566 1 1 0.000000 12.780000 6.148800 75.964302 # C 
567 1 1 0.000000 15.646800 6.066200 75.928299 # C 
568 1 1 0.000000 17.768000 4.860200 75.977303 # C 
569 1 1 0.000000 19.170000 4.919000 75.964302 # C 
570 1 1 0.000000 17.061701 6.009900 75.943100 # C 
571 1 1 0.000000 19.954000 6.039200 75.971901 # C 
572 1 1 0.000000 22.010000 4.919000 75.964302 # C 
573 1 1 0.000000 23.430000 4.919000 75.964302 # C 
574 1 1 0.000000 21.336100 6.078700 75.977097 # C 
575 1 1 0.000000 24.139999 6.148800 75.964302 # C 
576 1 1 0.000000 26.270000 4.919000 75.964302 # C 
577 1 1 0.000000 27.690001 4.919000 75.964302 # C 