
    3000 atoms
    2000 bonds
    1000 angles
       4 atom types
       1 bond types
       1 angle types

      0.0000     30.0000 xlo xhi
      0.0000     30.0000 ylo yhi
      0.0000     60.0000 zlo zhi

 Masses

 1  1.007940
 2 15.999400
 3 22.989771
 4 35.452999

Atoms

       1       1       2     -0.8476      4.6680     11.0820     76.9040
       2       1       1      0.4238      4.2240     11.4510     76.1010
       3       1       1      0.4238      4.0920     11.3790     77.6270
       4       2       2     -0.8476      7.0330      5.8760     81.8910
       5       2       1      0.4238      7.0780      6.2240     82.7980
       6       2       1      0.4238      7.5920      5.0880     81.9610
       7       3       2     -0.8476      5.5690      4.9600     90.8870
       8       3       1      0.4238      4.9590      4.1600     90.9800
       9       3       1      0.4238      4.9950      5.6550     90.4220
      10       4       2     -0.8476      1.9750     15.0070     99.5670
      11       4       1      0.4238      2.1370     14.2630     98.9660
      12       4       1      0.4238      1.6190     14.5390    100.3600
      13       5       2     -0.8476      6.1860     17.6960     73.0720
      14       5       1      0.4238      7.0830     17.9790     72.8160
      15       5       1      0.4238      6.3370     16.8320     73.4900
      16       6       2     -0.8476     15.4370      6.7940     91.5560
      17       6       1      0.4238     14.5240      6.3190     91.5320
      18       6       1      0.4238     15.9840      6.1130     91.9730
      19       7       2     -0.8476      9.3240     14.8110     82.3320
      20       7       1      0.4238      9.6330     14.3480     83.1120
      21       7       1      0.4238      9.5060     14.1160     81.6450
      22       8       2     -0.8476     12.4620     27.0260     92.3730
      23       8       1      0.4238     12.3860     27.6950     93.0760
      24       8       1      0.4238     11.6190     27.0800     91.9360
      25       9       2     -0.8476      4.7860     17.3180     62.3100
      26       9       1      0.4238      4.7810     16.3880     62.1960
      27       9       1      0.4238      5.5280     17.5800     61.7810
      28      10       2     -0.8476      7.2050      7.9910     79.4420
      29      10       1      0.4238      7.7820      8.3470     80.1520
      30      10       1      0.4238      6.3090      8.0620     79.8000
      31      11       2     -0.8476     17.1260     15.7010     65.5770
      32      11       1      0.4238     17.0700     15.2720     64.7260
      33      11       1      0.4238     17.8050     16.4540     65.4450
      34      12       2     -0.8476      3.7500      9.8440     70.6290
      35      12       1      0.4238      3.1100      9.2900     70.9980
      36      12       1      0.4238      3.1640     10.2450     69.9620
      37      13       2     -0.8476      4.9350     17.1950     83.1090
      38      13       1      0.4238      5.8700     17.0340     82.9850
      39      13       1      0.4238      4.6550     16.3670     83.5810
      40      14       2     -0.8476      3.9910     12.1620     88.8600
      41      14       1      0.4238      4.5940     11.9680     88.1290
      42      14       1      0.4238      3.4140     12.7750     88.4300
      43      15       2     -0.8476      5.2400      8.0370     88.0810
      44      15       1      0.4238      5.6560      8.8310     87.6580
      45      15       1      0.4238      4.7860      8.4280     88.8120
      46      16       2     -0.8476      8.1720      7.9990     99.5810
      47      16       1      0.4238      8.0400      8.5500    100.3270
      48      16       1      0.4238      7.2440      7.7560     99.2630
      49      17       2     -0.8476     11.6740      9.9090     65.9860
      50      17       1      0.4238     11.9980      9.8710     66.9320
      51      17       1      0.4238     10.7480     10.2700     66.0750
      52      18       2     -0.8476      1.0020      6.6670     75.5910
      53      18       1      0.4238      1.4830      6.9900     74.8300
      54      18       1      0.4238      1.6080      6.7810     76.3470
      55      19       2     -0.8476     10.8820     10.1560     75.9160
      56      19       1      0.4238     10.5740     10.7530     76.5970
      57      19       1      0.4238     11.0210      9.2640     76.2890
      58      20       2     -0.8476      8.9640      7.1070     90.4530
      59      20       1      0.4238      9.2420      6.2060     90.5990
      60      20       1      0.4238      9.4220      7.5450     91.2370
      61      21       2     -0.8476     25.1770     15.2710     99.1260
      62      21       1      0.4238     24.5340     14.9420     98.4590
      63      21       1      0.4238     26.0620     15.0820     98.6820
      64      22       2     -0.8476      7.3160      6.2880     88.4950
      65      22       1      0.4238      7.6400      6.6310     89.3630
      66      22       1      0.4238      6.5630      6.8520     88.2800
      67      23       2     -0.8476      2.6610      7.6810     62.9430
      68      23       1      0.4238      2.9430      6.7390     62.9810
      69      23       1      0.4238      1.7780      7.5990     62.4830
      70      24       2     -0.8476      5.8210     21.6030     72.2390
      71      24       1      0.4238      6.4660     21.7820     72.9630
      72      24       1      0.4238      6.3840     21.9140     71.4560
      73      25       2     -0.8476     16.0220     21.8550     73.8310
      74      25       1      0.4238     15.2220     21.8090     74.2920
      75      25       1      0.4238     15.6730     22.0570     72.9180
      76      26       2     -0.8476      2.3390      4.7820     83.8140
      77      26       1      0.4238      1.8390      4.4250     83.0870
      78      26       1      0.4238      2.7750      4.0770     84.1380
      79      27       2     -0.8476      1.4850     16.1370     83.4760
      80      27       1      0.4238      1.6440     16.4250     84.3490
      81      27       1      0.4238      1.3120     16.9610     82.9750
      82      28       2     -0.8476     14.1430     14.7950     94.4790
      83      28       1      0.4238     13.9310     14.5530     95.3560
      84      28       1      0.4238     14.5230     15.6620     94.5190
      85      29       2     -0.8476     13.4210     21.5950     92.3430
      86      29       1      0.4238     13.3300     21.6210     93.3030
      87      29       1      0.4238     13.2810     22.5260     92.0630
      88      30       2     -0.8476     10.9550     18.6330    102.2070
      89      30       1      0.4238     10.0410     18.8610    102.3670
      90      30       1      0.4238     11.2050     17.9630    102.9480
      91      31       2     -0.8476      6.6080     24.9180     73.9590
      92      31       1      0.4238      5.8400     24.6220     73.5450
      93      31       1      0.4238      7.0370     25.3360     73.2080
      94      32       2     -0.8476     11.4260      8.6040     63.4040
      95      32       1      0.4238     11.7610      9.4010     62.9940
      96      32       1      0.4238     11.2480      8.8890     64.3080
      97      33       2     -0.8476      9.5690     26.6840     73.2110
      98      33       1      0.4238     10.1230     26.5420     74.0150
      99      33       1      0.4238      9.8050     27.5950     72.9270
     100      34       2     -0.8476      5.2690     23.7520     77.2650
     101      34       1      0.4238      5.1490     24.6800     76.8880
     102      34       1      0.4238      6.0610     23.7960     77.7760
     103      35       2     -0.8476      4.5990     14.6890     84.5830
     104      35       1      0.4238      4.4300     13.8760     85.0620
     105      35       1      0.4238      5.5610     14.7690     84.6610
     106      36       2     -0.8476     20.9520      2.9610     87.1640
     107      36       1      0.4238     21.4140      2.0790     87.0790
     108      36       1      0.4238     21.6670      3.6530     87.0130
     109      37       2     -0.8476     24.5170     12.0390    103.7840
     110      37       1      0.4238     23.6870     11.5720    103.8940
     111      37       1      0.4238     25.0100     11.5060    104.3610
     112      38       2     -0.8476     23.5720      7.2420     64.4780
     113      38       1      0.4238     22.7050      6.8450     64.8300
     114      38       1      0.4238     23.9510      6.6590     63.8580
     115      39       2     -0.8476     11.9260      6.3650     62.0180
     116      39       1      0.4238     12.1380      5.7690     62.7540
     117      39       1      0.4238     11.6570      7.2120     62.4930
     118      40       2     -0.8476      9.6470      5.3140     80.2780
     119      40       1      0.4238      8.9640      4.6110     80.3260
     120      40       1      0.4238      9.0430      6.0640     80.1530
     121      41       2     -0.8476      9.3810     18.3190     84.2750
     122      41       1      0.4238      8.5160     18.3400     84.6950
     123      41       1      0.4238      9.4310     19.2630     84.0090
     124      42       2     -0.8476      5.3420     12.3880     86.2710
     125      42       1      0.4238      5.8420     11.6970     86.6780
     126      42       1      0.4238      5.9030     13.1480     86.5780
     127      43       2     -0.8476      2.6700     16.6750     90.1660
     128      43       1      0.4238      3.1200     16.9500     90.9740
     129      43       1      0.4238      1.7630     16.5170     90.4680
     130      44       2     -0.8476      1.8020     26.0840     66.5230
     131      44       1      0.4238      1.5790     27.0650     66.5050
     132      44       1      0.4238      2.7950     26.1630     66.4450
     133      45       2     -0.8476      5.2990     18.7740     68.1690
     134      45       1      0.4238      4.3030     18.8030     68.3220
     135      45       1      0.4238      5.5330     19.7550     67.9240
     136      46       2     -0.8476      9.8920     13.9770     66.3210
     137      46       1      0.4238      9.1190     13.4780     66.4430
     138      46       1      0.4238     10.3420     13.5570     65.5360
     139      47       2     -0.8476      3.7080     21.9690     85.5040
     140      47       1      0.4238      3.5890     21.9450     84.5560
     141      47       1      0.4238      4.1230     22.8350     85.5490
     142      48       2     -0.8476      3.4280     13.7310     91.4870
     143      48       1      0.4238      3.7190     13.0730     90.8300
     144      48       1      0.4238      3.5820     14.5420     91.0080
     145      49       2     -0.8476     14.7730     18.5960    108.1140
     146      49       1      0.4238     13.8290     18.7240    108.2240
     147      49       1      0.4238     15.0430     18.1480    108.9750
     148      50       2     -0.8476      3.1740     19.4680     63.2120
     149      50       1      0.4238      3.6320     18.6280     63.2030
     150      50       1      0.4238      3.9310     20.1200     63.2810
     151      51       2     -0.8476      6.0480     10.0460     97.5780
     152      51       1      0.4238      6.0640     10.8890     98.0590
     153      51       1      0.4238      5.6220     10.2240     96.7430
     154      52       2     -0.8476     19.8700     22.4600     89.9710
     155      52       1      0.4238     18.9030     22.2880     89.7210
     156      52       1      0.4238     20.0740     21.6910     90.5910
     157      53       2     -0.8476      3.1290     22.4400    106.6200
     158      53       1      0.4238      3.5290     23.2830    106.9110
     159      53       1      0.4238      2.3900     22.4090    107.2340
     160      54       2     -0.8476     14.6120     18.6800     79.6220
     161      54       1      0.4238     14.7440     18.4140     80.5080
     162      54       1      0.4238     15.5260     18.8310     79.3470
     163      55       2     -0.8476      2.2870     25.1320     84.7370
     164      55       1      0.4238      2.2350     24.9240     85.7310
     165      55       1      0.4238      3.0880     25.7090     84.6390
     166      56       2     -0.8476      7.3650      3.6740     89.0590
     167      56       1      0.4238      6.7990      4.4370     88.8490
     168      56       1      0.4238      8.1750      4.0550     89.4030
     169      57       2     -0.8476     10.3390      7.7380     92.9010
     170      57       1      0.4238      9.9040      8.2360     93.6340
     171      57       1      0.4238     10.4040      6.8380     93.2220
     172      58       2     -0.8476     16.4140      7.5690     63.5010
     173      58       1      0.4238     17.2240      7.8580     63.1280
     174      58       1      0.4238     15.8080      7.7000     62.6710
     175      59       2     -0.8476      8.5710      4.7980     95.0950
     176      59       1      0.4238      7.9660      5.4040     94.4940
     177      59       1      0.4238      8.4460      5.0950     96.0280
     178      60       2     -0.8476     10.9350     13.8760     71.1910
     179      60       1      0.4238     10.7090     13.0980     70.6340
     180      60       1      0.4238     10.4720     13.7660     72.0180
     181      61       2     -0.8476      8.0600      3.0740     80.8300
     182      61       1      0.4238      8.6500      2.6190     81.5280
     183      61       1      0.4238      7.1480      2.7960     81.0350
     184      62       2     -0.8476     11.8950     20.3250    100.0640
     185      62       1      0.4238     11.3670     19.7680    100.6690
     186      62       1      0.4238     12.7860     19.9580    100.2290
     187      63       2     -0.8476     14.8910      2.9190     63.9920
     188      63       1      0.4238     15.1980      3.6810     64.4220
     189      63       1      0.4238     14.2120      2.5770     64.5780
     190      64       2     -0.8476      9.8230     11.5810     69.8270
     191      64       1      0.4238      9.1830     11.7530     69.1480
     192      64       1      0.4238      9.3890     11.0610     70.5340
     193      65       2     -0.8476     10.0780     12.9670     73.7340
     194      65       1      0.4238      9.2280     12.5610     73.9930
     195      65       1      0.4238     10.5120     13.1940     74.5600
     196      66       2     -0.8476     11.2820      1.6400     63.0530
     197      66       1      0.4238     11.3670      1.9590     64.0160
     198      66       1      0.4238     10.7430      2.3230     62.6670
     199      67       2     -0.8476      5.6180      9.1250     68.7770
     200      67       1      0.4238      6.4050      8.9190     69.3140
     201      67       1      0.4238      5.0020      9.4580     69.4220
     202      68       2     -0.8476      4.4030      5.6870     70.8150
     203      68       1      0.4238      4.1090      6.2720     70.0970
     204      68       1      0.4238      4.8170      4.9730     70.3270
     205      69       2     -0.8476      4.2760      8.4650     80.3250
     206      69       1      0.4238      3.7720      7.9910     80.9640
     207      69       1      0.4238      4.6040      9.2880     80.7530
     208      70       2     -0.8476      3.8910      6.0440     93.6130
     209      70       1      0.4238      3.2600      5.5200     94.1500
     210      70       1      0.4238      3.3030      6.5100     93.0200
     211      71       2     -0.8476      2.8400      9.2650     89.6620
     212      71       1      0.4238      2.6800      9.0440     88.7470
     213      71       1      0.4238      2.8340     10.2110     89.7330
     214      72       2     -0.8476     10.7000     14.0930    107.4440
     215      72       1      0.4238     11.5120     14.1550    107.0120
     216      72       1      0.4238     10.7810     13.1930    107.7550
     217      73       2     -0.8476      1.7370     18.9020     98.0900
     218      73       1      0.4238      1.4590     19.7920     98.3520
     219      73       1      0.4238      1.8660     18.9490     97.1470
     220      74       2     -0.8476     10.9780      8.8750     85.9480
     221      74       1      0.4238     10.5890      8.6260     86.8450
     222      74       1      0.4238     11.4360      9.6560     86.1870
     223      75       2     -0.8476     10.9270      5.1850     93.8050
     224      75       1      0.4238     10.0560      4.9350     94.2020
     225      75       1      0.4238     11.3600      4.3250     93.6650
     226      76       2     -0.8476      4.1190     11.3250     74.1580
     227      76       1      0.4238      4.5980     11.9000     73.5120
     228      76       1      0.4238      4.4400     10.4300     73.9620
     229      77       2     -0.8476      3.3780      6.8060     77.2530
     230      77       1      0.4238      3.1570      7.1610     78.0990
     231      77       1      0.4238      4.3010      7.0320     77.1260
     232      78       2     -0.8476      7.3820     23.2710     63.3190
     233      78       1      0.4238      6.5500     23.0350     62.8470
     234      78       1      0.4238      7.8590     22.4720     63.1920
     235      79       2     -0.8476      5.0170      4.9050     80.4180
     236      79       1      0.4238      4.1420      5.0420     80.1320
     237      79       1      0.4238      5.5820      5.7270     80.2950
     238      80       2     -0.8476      3.3440     21.4720     82.6310
     239      80       1      0.4238      3.9320     21.8210     81.9450
     240      80       1      0.4238      2.4670     21.5480     82.1380
     241      81       2     -0.8476     21.6130     14.6160     72.0660
     242      81       1      0.4238     21.7390     14.9590     71.2180
     243      81       1      0.4238     20.6190     14.8160     72.2500
     244      82       2     -0.8476     12.4920      6.5480     95.8460
     245      82       1      0.4238     12.1630      6.2040     95.0400
     246      82       1      0.4238     12.3860      7.4790     95.8590
     247      83       2     -0.8476      2.7870     10.5180     85.5150
     248      83       1      0.4238      3.1320     10.5750     84.6460
     249      83       1      0.4238      2.8600     11.4060     85.7870
     250      84       2     -0.8476      5.1270      2.8700     93.7610
     251      84       1      0.4238      4.8300      3.2720     92.9890
     252      84       1      0.4238      5.7300      3.5620     94.0980
     253      85       2     -0.8476     15.5260     11.5320     81.1370
     254      85       1      0.4238     15.1620     10.7330     81.5030
     255      85       1      0.4238     15.4660     11.4200     80.1940
     256      86       2     -0.8476     27.1240     17.5940     77.8070
     257      86       1      0.4238     27.9480     17.8640     78.2440
     258      86       1      0.4238     27.1370     18.0480     76.9000
     259      87       2     -0.8476      6.5730     15.8040     80.0900
     260      87       1      0.4238      6.9590     16.3390     80.8080
     261      87       1      0.4238      6.8690     16.4130     79.3310
     262      88       2     -0.8476     17.2830      8.3540     83.7810
     263      88       1      0.4238     16.6400      9.0580     83.4490
     264      88       1      0.4238     16.9730      7.5600     83.3790
     265      89       2     -0.8476     23.8720     19.4410     77.7880
     266      89       1      0.4238     23.2010     18.8640     77.3790
     267      89       1      0.4238     23.3350     19.9810     78.4250
     268      90       2     -0.8476     11.1050      1.8410    100.1110
     269      90       1      0.4238     10.4880      2.4500     99.6310
     270      90       1      0.4238     11.6320      2.4180    100.7050
     271      91       2     -0.8476      1.7420     21.6470     98.4240
     272      91       1      0.4238      1.1630     22.2020     97.8550
     273      91       1      0.4238      2.5320     21.4100     97.8370
     274      92       2     -0.8476      6.4580     14.0970     65.5890
     275      92       1      0.4238      6.6730     14.0190     64.6120
     276      92       1      0.4238      5.8990     14.8940     65.6570
     277      93       2     -0.8476     28.8490     10.8680     80.1730
     278      93       1      0.4238     28.1700     10.7200     80.8630
     279      93       1      0.4238     28.4030     11.4190     79.4890
     280      94       2     -0.8476      5.5520      2.3700     81.3300
     281      94       1      0.4238      5.2740      3.1940     80.9530
     282      94       1      0.4238      5.2350      1.8010     80.5710
     283      95       2     -0.8476      5.5940     26.2660     76.2000
     284      95       1      0.4238      4.6380     26.5000     76.1960
     285      95       1      0.4238      5.7580     25.8970     75.3120
     286      96       2     -0.8476     11.9660      1.4870     88.6640
     287      96       1      0.4238     11.8350      2.4230     88.4750
     288      96       1      0.4238     11.5580      1.0920     87.8830
     289      97       2     -0.8476      7.5800     13.9920     90.6910
     290      97       1      0.4238      7.4300     14.8860     90.9720
     291      97       1      0.4238      7.4290     13.4990     91.4810
     292      98       2     -0.8476      6.1600     14.7440     68.9540
     293      98       1      0.4238      7.0480     14.4220     69.2070
     294      98       1      0.4238      6.0080     15.4930     69.5280
     295      99       2     -0.8476      2.4880      8.7540     92.8380
     296      99       1      0.4238      1.7780      9.3230     93.1950
     297      99       1      0.4238      2.5430      9.0430     91.9210
     298     100       2     -0.8476      4.3480     28.0870    105.3690
     299     100       1      0.4238      4.8470     28.2550    106.2250
     300     100       1      0.4238      3.8130     27.3350    105.6610
     301     101       2     -0.8476     11.3900      7.3860     79.8280
     302     101       1      0.4238     11.6880      7.4840     80.7310
     303     101       1      0.4238     10.8440      6.5890     79.9210
     304     102       2     -0.8476      2.6780     22.9420     62.0350
     305     102       1      0.4238      2.2720     22.2800     62.5920
     306     102       1      0.4238      2.4980     23.8090     62.4930
     307     103       2     -0.8476     10.6300     22.5470     64.0000
     308     103       1      0.4238     10.6010     23.4710     63.6430
     309     103       1      0.4238     10.2870     21.9540     63.3120
     310     104       2     -0.8476      3.3440     11.5710     63.6240
     311     104       1      0.4238      3.1220     11.7530     64.5530
     312     104       1      0.4238      3.9470     10.7910     63.6170
     313     105       2     -0.8476      3.5820     28.6350     83.0630
     314     105       1      0.4238      2.8260     28.3340     83.6100
     315     105       1      0.4238      3.1410     28.8730     82.2270
     316     106       2     -0.8476      9.1230      8.8900     95.1050
     317     106       1      0.4238      9.2830      8.5390     96.0390
     318     106       1      0.4238      9.7290      9.6340     95.0000
     319     107       2     -0.8476     14.3850     10.7690     90.4530
     320     107       1      0.4238     14.8560     11.3910     91.0620
     321     107       1      0.4238     13.5990     10.5130     90.9650
     322     108       2     -0.8476      1.8230     24.6680     63.8880
     323     108       1      0.4238      2.6360     24.3160     64.3400
     324     108       1      0.4238      1.2530     24.9780     64.6400
     325     109       2     -0.8476     14.2200     25.4940     74.0920
     326     109       1      0.4238     13.8910     26.3830     74.2870
     327     109       1      0.4238     14.0560     24.9180     74.8530
     328     110       2     -0.8476      3.7100      7.1850     68.5400
     329     110       1      0.4238      3.4670      7.2360     67.5610
     330     110       1      0.4238      4.4100      7.8550     68.5800
     331     111       2     -0.8476      7.9110     20.4580     78.3350
     332     111       1      0.4238      8.5170     21.1180     77.9570
     333     111       1      0.4238      7.3150     20.1360     77.5880
     334     112       2     -0.8476     14.3360     25.4610     97.7850
     335     112       1      0.4238     14.2390     26.1640     98.4340
     336     112       1      0.4238     14.6930     24.7130     98.2440
     337     113       2     -0.8476      3.8340     16.0430     95.3740
     338     113       1      0.4238      3.2790     15.8070     96.1230
     339     113       1      0.4238      4.6070     15.5490     95.5030
     340     114       2     -0.8476     24.1240     21.6290    106.6240
     341     114       1      0.4238     23.1100     21.5860    106.3710
     342     114       1      0.4238     24.2950     20.6630    106.8290
     343     115       2     -0.8476      6.1790     21.8900     88.3870
     344     115       1      0.4238      5.6180     22.6060     88.6460
     345     115       1      0.4238      6.1960     21.2110     89.1070
     346     116       2     -0.8476     17.1920     23.4030     64.7820
     347     116       1      0.4238     17.3630     23.8810     65.6220
     348     116       1      0.4238     17.4270     24.0650     64.0860
     349     117       2     -0.8476     14.5400     23.2200     63.7480
     350     117       1      0.4238     13.9650     23.4750     64.4620
     351     117       1      0.4238     15.4280     23.4040     64.0740
     352     118       2     -0.8476      9.3890     19.1650     91.9920
     353     118       1      0.4238      8.9680     18.7700     91.2100
     354     118       1      0.4238      9.4170     18.4510     92.6410
     355     119       2     -0.8476     11.4380     22.2370    102.0090
     356     119       1      0.4238     11.8460     21.7400    101.2680
     357     119       1      0.4238     10.5770     22.4800    101.7120
     358     120       2     -0.8476     16.3260     27.9680     92.4020
     359     120       1      0.4238     15.4530     27.7360     91.9280
     360     120       1      0.4238     16.0680     28.6200     93.0330
     361     121       2     -0.8476      4.2710     19.9740    104.1870
     362     121       1      0.4238      4.4580     19.0730    103.9880
     363     121       1      0.4238      4.3200     20.4290    103.3130
     364     122       2     -0.8476      9.1810     24.4650     68.6370
     365     122       1      0.4238     10.0070     24.9370     68.7030
     366     122       1      0.4238      8.5170     25.1170     68.3120
     367     123       2     -0.8476     11.9290     15.7500     66.7180
     368     123       1      0.4238     11.0500     15.5410     66.4080
     369     123       1      0.4238     12.4010     14.8790     66.7170
     370     124       2     -0.8476     20.6590     26.5520     78.4490
     371     124       1      0.4238     21.1820     27.3460     78.4990
     372     124       1      0.4238     19.7340     26.8580     78.3810
     373     125       2     -0.8476      3.0860     26.4520     79.1940
     374     125       1      0.4238      3.1740     26.9230     78.3940
     375     125       1      0.4238      2.2720     26.8690     79.6040
     376     126       2     -0.8476      2.6830     26.6670     87.3320
     377     126       1      0.4238      3.5800     26.9070     87.4260
     378     126       1      0.4238      2.4850     26.2270     88.1260
     379     127       2     -0.8476     24.3310     22.6190     79.0690
     380     127       1      0.4238     24.1370     23.5160     79.4560
     381     127       1      0.4238     23.6630     21.9850     79.4500
     382     128       2     -0.8476     17.5070     18.1700     82.0060
     383     128       1      0.4238     18.2260     18.0060     81.2950
     384     128       1      0.4238     17.0300     17.2970     82.0820
     385     129       2     -0.8476      4.7900     24.3180     87.0670
     386     129       1      0.4238      5.1110     24.6840     87.9010
     387     129       1      0.4238      3.8350     24.1960     87.2480
     388     130       2     -0.8476      1.7470      5.4690     71.5790
     389     130       1      0.4238      1.4260      4.5680     71.3390
     390     130       1      0.4238      2.5050      5.5850     70.9900
     391     131       2     -0.8476     16.7210      3.9840    106.0340
     392     131       1      0.4238     16.9170      4.2850    106.9860
     393     131       1      0.4238     15.9480      4.4700    105.7760
     394     132       2     -0.8476      6.3560      6.3880     77.0460
     395     132       1      0.4238      6.8840      7.0640     77.4610
     396     132       1      0.4238      6.5920      5.6220     77.5370
     397     133       2     -0.8476      2.8890      6.5850     90.5410
     398     133       1      0.4238      2.9380      7.5020     90.2630
     399     133       1      0.4238      2.0150      6.3120     90.1450
     400     134       2     -0.8476      3.6810      3.5480    102.1520
     401     134       1      0.4238      3.5980      2.5900    101.9940
     402     134       1      0.4238      4.3700      3.6570    102.8700
     403     135       2     -0.8476     11.7040      7.7210     76.8830
     404     135       1      0.4238     11.9010      7.9120     77.8360
     405     135       1      0.4238     11.1270      6.9720     76.9980
     406     136       2     -0.8476     27.8970     13.0940     61.6790
     407     136       1      0.4238     27.5140     12.2800     61.3040