
    3308 atoms
    2200 bonds
    1100 angles
       4 atom types
       1 bond types
       1 angle types

      0.0000     30.0000 xlo xhi
      0.0000     30.0000 ylo yhi
      0.0000     60.0000 zlo zhi

 Masses

 1  1.007940
 2 15.999400
 3 22.989771
 4 35.452999

Atoms

       1       1       2     -0.8476      3.6680     10.0820     95.9040
       2       1       1      0.4238      3.2240     10.4510     95.1010
       3       1       1      0.4238      3.0920     10.3790     96.6270
       4       2       2     -0.8476      6.0330      4.8760    100.8910
       5       2       1      0.4238      6.0780      5.2240    101.7980
       6       2       1      0.4238      6.5920      4.0880    100.9610
       7       3       2     -0.8476      4.5690      3.9600    109.8870
       8       3       1      0.4238      3.9590      3.1600    109.9800
       9       3       1      0.4238      3.9950      4.6550    109.4220
      10       4       2     -0.8476      0.9750     14.0070    118.5670
      11       4       1      0.4238      1.1370     13.2630    117.9660
      12       4       1      0.4238      0.6190     13.5390    119.3600
      13       5       2     -0.8476      5.1860     16.6960     92.0720
      14       5       1      0.4238      6.0830     16.9790     91.8160
      15       5       1      0.4238      5.3370     15.8320     92.4900
      16       6       2     -0.8476     14.4370      5.7940    110.5560
      17       6       1      0.4238     13.5240      5.3190    110.5320
      18       6       1      0.4238     14.9840      5.1130    110.9730
      19       7       2     -0.8476      8.3240     13.8110    101.3320
      20       7       1      0.4238      8.6330     13.3480    102.1120
      21       7       1      0.4238      8.5060     13.1160    100.6450
      22       8       2     -0.8476     11.4620     26.0260    111.3730
      23       8       1      0.4238     11.3860     26.6950    112.0760
      24       8       1      0.4238     10.6190     26.0800    110.9360
      25       9       2     -0.8476      3.7860     16.3180     81.3100
      26       9       1      0.4238      3.7810     15.3880     81.1960
      27       9       1      0.4238      4.5280     16.5800     80.7810
      28      10       2     -0.8476      6.2050      6.9910     98.4420
      29      10       1      0.4238      6.7820      7.3470     99.1520
      30      10       1      0.4238      5.3090      7.0620     98.8000
      31      11       2     -0.8476     16.1260     14.7010     84.5770
      32      11       1      0.4238     16.0700     14.2720     83.7260
      33      11       1      0.4238     16.8050     15.4540     84.4450
      34      12       2     -0.8476      2.7500      8.8440     89.6290
      35      12       1      0.4238      2.1100      8.2900     89.9980
      36      12       1      0.4238      2.1640      9.2450     88.9620
      37      13       2     -0.8476      3.9350     16.1950    102.1090
      38      13       1      0.4238      4.8700     16.0340    101.9850
      39      13       1      0.4238      3.6550     15.3670    102.5810
      40      14       2     -0.8476      2.9910     11.1620    107.8600
      41      14       1      0.4238      3.5940     10.9680    107.1290
      42      14       1      0.4238      2.4140     11.7750    107.4300
      43      15       2     -0.8476      4.2400      7.0370    107.0810
      44      15       1      0.4238      4.6560      7.8310    106.6580
      45      15       1      0.4238      3.7860      7.4280    107.8120
      46      16       2     -0.8476      7.1720      6.9990    118.5810
      47      16       1      0.4238      7.0400      7.5500    119.3270
      48      16       1      0.4238      6.2440      6.7560    118.2630
      49      17       2     -0.8476     10.6740      8.9090     84.9860
      50      17       1      0.4238     10.9980      8.8710     85.9320
      51      17       1      0.4238      9.7480      9.2700     85.0750
      52      18       2     -0.8476      0.0020      5.6670     94.5910
      53      18       1      0.4238      0.4830      5.9900     93.8300
      54      18       1      0.4238      0.6080      5.7810     95.3470
      55      19       2     -0.8476      9.8820      9.1560     94.9160
      56      19       1      0.4238      9.5740      9.7530     95.5970
      57      19       1      0.4238     10.0210      8.2640     95.2890
      58      20       2     -0.8476      7.9640      6.1070    109.4530
      59      20       1      0.4238      8.2420      5.2060    109.5990
      60      20       1      0.4238      8.4220      6.5450    110.2370
      61      21       2     -0.8476     24.1770     14.2710    118.1260
      62      21       1      0.4238     23.5340     13.9420    117.4590
      63      21       1      0.4238     25.0620     14.0820    117.6820
      64      22       2     -0.8476      6.3160      5.2880    107.4950
      65      22       1      0.4238      6.6400      5.6310    108.3630
      66      22       1      0.4238      5.5630      5.8520    107.2800
      67      23       2     -0.8476      1.6610      6.6810     81.9430
      68      23       1      0.4238      1.9430      5.7390     81.9810
      69      23       1      0.4238      0.7780      6.5990     81.4830
      70      24       2     -0.8476      4.8210     20.6030     91.2390
      71      24       1      0.4238      5.4660     20.7820     91.9630
      72      24       1      0.4238      5.3840     20.9140     90.4560
      73      25       2     -0.8476     15.0220     20.8550     92.8310
      74      25       1      0.4238     14.2220     20.8090     93.2920
      75      25       1      0.4238     14.6730     21.0570     91.9180
      76      26       2     -0.8476      1.3390      3.7820    102.8140
      77      26       1      0.4238      0.8390      3.4250    102.0870
      78      26       1      0.4238      1.7750      3.0770    103.1380
      79      27       2     -0.8476      0.4850     15.1370    102.4760
      80      27       1      0.4238      0.6440     15.4250    103.3490
      81      27       1      0.4238      0.3120     15.9610    101.9750
      82      28       2     -0.8476     12.4210     20.5950    111.3430
      83      28       1      0.4238     12.3300     20.6210    112.3030
      84      28       1      0.4238     12.2810     21.5260    111.0630
      85      29       2     -0.8476      9.9550     17.6330    121.2070
      86      29       1      0.4238      9.0410     17.8610    121.3670
      87      29       1      0.4238     10.2050     16.9630    121.9480
      88      30       2     -0.8476      5.6080     23.9180     92.9590
      89      30       1      0.4238      4.8400     23.6220     92.5450
      90      30       1      0.4238      6.0370     24.3360     92.2080
      91      31       2     -0.8476     10.4260      7.6040     82.4040
      92      31       1      0.4238     10.7610      8.4010     81.9940
      93      31       1      0.4238     10.2480      7.8890     83.3080
      94      32       2     -0.8476      8.5690     25.6840     92.2110
      95      32       1      0.4238      9.1230     25.5420     93.0150
      96      32       1      0.4238      8.8050     26.5950     91.9270
      97      33       2     -0.8476      4.2690     22.7520     96.2650
      98      33       1      0.4238      4.1490     23.6800     95.8880
      99      33       1      0.4238      5.0610     22.7960     96.7760
     100      34       2     -0.8476      3.5990     13.6890    103.5830
     101      34       1      0.4238      3.4300     12.8760    104.0620
     102      34       1      0.4238      4.5610     13.7690    103.6610
     103      35       2     -0.8476     19.9520      1.9610    106.1640
     104      35       1      0.4238     20.4140      1.0790    106.0790
     105      35       1      0.4238     20.6670      2.6530    106.0130
     106      36       2     -0.8476     23.5170     11.0390    122.7840
     107      36       1      0.4238     22.6870     10.5720    122.8940
     108      36       1      0.4238     24.0100     10.5060    123.3610
     109      37       2     -0.8476     22.5720      6.2420     83.4780
     110      37       1      0.4238     21.7050      5.8450     83.8300
     111      37       1      0.4238     22.9510      5.6590     82.8580
     112      38       2     -0.8476     10.9260      5.3650     81.0180
     113      38       1      0.4238     11.1380      4.7690     81.7540
     114      38       1      0.4238     10.6570      6.2120     81.4930
     115      39       2     -0.8476      8.6470      4.3140     99.2780
     116      39       1      0.4238      7.9640      3.6110     99.3260
     117      39       1      0.4238      8.0430      5.0640     99.1530
     118      40       2     -0.8476      8.3810     17.3190    103.2750
     119      40       1      0.4238      7.5160     17.3400    103.6950
     120      40       1      0.4238      8.4310     18.2630    103.0090
     121      41       2     -0.8476      4.3420     11.3880    105.2710
     122      41       1      0.4238      4.8420     10.6970    105.6780
     123      41       1      0.4238      4.9030     12.1480    105.5780
     124      42       2     -0.8476      1.6700     15.6750    109.1660
     125      42       1      0.4238      2.1200     15.9500    109.9740
     126      42       1      0.4238      0.7630     15.5170    109.4680
     127      43       2     -0.8476     16.4700     28.0890     82.1810
     128      43       1      0.4238     16.8540     27.2300     82.4990
     129      43       1      0.4238     15.5330     27.8560     82.0880
     130      44       2     -0.8476      0.8020     25.0840     85.5230
     131      44       1      0.4238      0.5790     26.0650     85.5050
     132      44       1      0.4238      1.7950     25.1630     85.4450
     133      45       2     -0.8476      4.2990     17.7740     87.1690
     134      45       1      0.4238      3.3030     17.8030     87.3220
     135      45       1      0.4238      4.5330     18.7550     86.9240
     136      46       2     -0.8476      8.8920     12.9770     85.3210
     137      46       1      0.4238      8.1190     12.4780     85.4430
     138      46       1      0.4238      9.3420     12.5570     84.5360
     139      47       2     -0.8476      2.7080     20.9690    104.5040
     140      47       1      0.4238      2.5890     20.9450    103.5560
     141      47       1      0.4238      3.1230     21.8350    104.5490
     142      48       2     -0.8476     13.7730     17.5960    127.1140
     143      48       1      0.4238     12.8290     17.7240    127.2240
     144      48       1      0.4238     14.0430     17.1480    127.9750
     145      49       2     -0.8476      2.1740     18.4680     82.2120
     146      49       1      0.4238      2.6320     17.6280     82.2030
     147      49       1      0.4238      2.9310     19.1200     82.2810
     148      50       2     -0.8476      5.0480      9.0460    116.5780
     149      50       1      0.4238      5.0640      9.8890    117.0590
     150      50       1      0.4238      4.6220      9.2240    115.7430
     151      51       2     -0.8476     12.3900     27.3070    117.3600
     152      51       1      0.4238     11.8450     28.1130    117.2930
     153      51       1      0.4238     12.0450     26.9200    118.1750
     154      52       2     -0.8476     18.8700     21.4600    108.9710
     155      52       1      0.4238     17.9030     21.2880    108.7210
     156      52       1      0.4238     19.0740     20.6910    109.5910
     157      53       2     -0.8476      2.1290     21.4400    125.6200
     158      53       1      0.4238      2.5290     22.2830    125.9110
     159      53       1      0.4238      1.3900     21.4090    126.2340
     160      54       2     -0.8476     13.6120     17.6800     98.6220
     161      54       1      0.4238     13.7440     17.4140     99.5080
     162      54       1      0.4238     14.5260     17.8310     98.3470
     163      55       2     -0.8476      1.2870     24.1320    103.7370
     164      55       1      0.4238      1.2350     23.9240    104.7310
     165      55       1      0.4238      2.0880     24.7090    103.6390
     166      56       2     -0.8476      6.3650      2.6740    108.0590
     167      56       1      0.4238      5.7990      3.4370    107.8490
     168      56       1      0.4238      7.1750      3.0550    108.4030
     169      57       2     -0.8476      9.3390      6.7380    111.9010
     170      57       1      0.4238      8.9040      7.2360    112.6340
     171      57       1      0.4238      9.4040      5.8380    112.2220
     172      58       2     -0.8476     15.4140      6.5690     82.5010
     173      58       1      0.4238     16.2240      6.8580     82.1280
     174      58       1      0.4238     14.8080      6.7000     81.6710
     175      59       2     -0.8476      7.5710      3.7980    114.0950
     176      59       1      0.4238      6.9660      4.4040    113.4940
     177      59       1      0.4238      7.4460      4.0950    115.0280
     178      60       2     -0.8476      9.9350     12.8760     90.1910
     179      60       1      0.4238      9.7090     12.0980     89.6340
     180      60       1      0.4238      9.4720     12.7660     91.0180
     181      61       2     -0.8476      7.0600      2.0740     99.8300
     182      61       1      0.4238      7.6500      1.6190    100.5280
     183      61       1      0.4238      6.1480      1.7960    100.0350
     184      62       2     -0.8476     10.8950     19.3250    119.0640
     185      62       1      0.4238     10.3670     18.7680    119.6690
     186      62       1      0.4238     11.7860     18.9580    119.2290
     187      63       2     -0.8476      9.9570     14.7800    128.7330
     188      63       1      0.4238     10.0580     14.1750    127.9720
     189      63       1      0.4238      9.1070     15.1960    128.5180
     190      64       2     -0.8476     13.8910      1.9190     82.9920
     191      64       1      0.4238     14.1980      2.6810     83.4220
     192      64       1      0.4238     13.2120      1.5770     83.5780
     193      65       2     -0.8476      8.8230     10.5810     88.8270
     194      65       1      0.4238      8.1830     10.7530     88.1480
     195      65       1      0.4238      8.3890     10.0610     89.5340
     196      66       2     -0.8476      8.3690     17.1580    128.4360
     197      66       1      0.4238      7.9830     17.0210    127.5750
     198      66       1      0.4238      7.7640     17.8880    128.7850
     199      67       2     -0.8476     10.2820      0.6400     82.0530
     200      67       1      0.4238     10.3670      0.9590     83.0160
     201      67       1      0.4238      9.7430      1.3230     81.6670
     202      68       2     -0.8476      3.4030      4.6870     89.8150
     203      68       1      0.4238      3.1090      5.2720     89.0970
     204      68       1      0.4238      3.8170      3.9730     89.3270
     205      69       2     -0.8476      3.2760      7.4650     99.3250
     206      69       1      0.4238      2.7720      6.9910     99.9640
     207      69       1      0.4238      3.6040      8.2880     99.7530
     208      70       2     -0.8476      2.8910      5.0440    112.6130
     209      70       1      0.4238      2.2600      4.5200    113.1500
     210      70       1      0.4238      2.3030      5.5100    112.0200
     211      71       2     -0.8476      1.8400      8.2650    108.6620
     212      71       1      0.4238      1.6800      8.0440    107.7470
     213      71       1      0.4238      1.8340      9.2110    108.7330
     214      72       2     -0.8476      9.7000     13.0930    126.4440
     215      72       1      0.4238     10.5120     13.1550    126.0120
     216      72       1      0.4238      9.7810     12.1930    126.7550
     217      73       2     -0.8476      0.7370     17.9020    117.0900
     218      73       1      0.4238      0.4590     18.7920    117.3520
     219      73       1      0.4238      0.8660     17.9490    116.1470
     220      74       2     -0.8476      9.9780      7.8750    104.9480
     221      74       1      0.4238      9.5890      7.6260    105.8450
     222      74       1      0.4238     10.4360      8.6560    105.1870
     223      75       2     -0.8476      9.9270      4.1850    112.8050
     224      75       1      0.4238      9.0560      3.9350    113.2020
     225      75       1      0.4238     10.3600      3.3250    112.6650
     226      76       2     -0.8476     20.7650     16.2180    128.3720
     227      76       1      0.4238     20.8220     16.1580    127.3900
     228      76       1      0.4238     21.5950     15.8570    128.6990
     229      77       2     -0.8476      3.1190     10.3250     93.1580
     230      77       1      0.4238      3.5980     10.9000     92.5120
     231      77       1      0.4238      3.4400      9.4300     92.9620
     232      78       2     -0.8476      2.3780      5.8060     96.2530
     233      78       1      0.4238      2.1570      6.1610     97.0990
     234      78       1      0.4238      3.3010      6.0320     96.1260
     235      79       2     -0.8476      6.3820     22.2710     82.3190
     236      79       1      0.4238      5.5500     22.0350     81.8470
     237      79       1      0.4238      6.8590     21.4720     82.1920
     238      80       2     -0.8476      4.0170      3.9050     99.4180
     239      80       1      0.4238      3.1420      4.0420     99.1320
     240      80       1      0.4238      4.5820      4.7270     99.2950
     241      81       2     -0.8476      2.3440     20.4720    101.6310
     242      81       1      0.4238      2.9320     20.8210    100.9450
     243      81       1      0.4238      1.4670     20.5480    101.1380
     244      82       2     -0.8476     11.4920      5.5480    114.8460
     245      82       1      0.4238     11.1630      5.2040    114.0400
     246      82       1      0.4238     11.3860      6.4790    114.8590
     247      83       2     -0.8476      4.1270      1.8700    112.7610
     248      83       1      0.4238      3.8300      2.2720    111.9890
     249      83       1      0.4238      4.7300      2.5620    113.0980
     250      84       2     -0.8476     14.5260     10.5320    100.1370
     251      84       1      0.4238     14.1620      9.7330    100.5030
     252      84       1      0.4238     14.4660     10.4200     99.1940
     253      85       2     -0.8476     26.1240     16.5940     96.8070
     254      85       1      0.4238     26.9480     16.8640     97.2440
     255      85       1      0.4238     26.1370     17.0480     95.9000
     256      86       2     -0.8476      8.8760     28.4370     85.5790
     257      86       1      0.4238      9.2270     27.5770     85.3580
     258      86       1      0.4238      8.7900     28.3980     86.5330
     259      87       2     -0.8476      5.5730     14.8040     99.0900
     260      87       1      0.4238      5.9590     15.3390     99.8080
     261      87       1      0.4238      5.8690     15.4130     98.3310
     262      88       2     -0.8476     16.2830      7.3540    102.7810
     263      88       1      0.4238     15.6400      8.0580    102.4490
     264      88       1      0.4238     15.9730      6.5600    102.3790
     265      89       2     -0.8476     22.8720     18.4410     96.7880
     266      89       1      0.4238     22.2010     17.8640     96.3790
     267      89       1      0.4238     22.3350     18.9810     97.4250
     268      90       2     -0.8476     10.1050      0.8410    119.1110
     269      90       1      0.4238      9.4880      1.4500    118.6310
     270      90       1      0.4238     10.6320      1.4180    119.7050
     271      91       2     -0.8476      0.7420     20.6470    117.4240
     272      91       1      0.4238      0.1630     21.2020    116.8550
     273      91       1      0.4238      1.5320     20.4100    116.8370
     274      92       2     -0.8476      2.0070     13.2540    128.6530
     275      92       1      0.4238      1.6330     13.1330    127.7530
     276      92       1      0.4238      2.0820     14.2010    128.6550
     277      93       2     -0.8476      5.4580     13.0970     84.5890
     278      93       1      0.4238      5.6730     13.0190     83.6120
     279      93       1      0.4238      4.8990     13.8940     84.6570
     280      94       2     -0.8476     27.8490      9.8680     99.1730
     281      94       1      0.4238     27.1700      9.7200     99.8630
     282      94       1      0.4238     27.4030     10.4190     98.4890
     283      95       2     -0.8476      4.5520      1.3700    100.3300
     284      95       1      0.4238      4.2740      2.1940     99.9530
     285      95       1      0.4238      4.2350      0.8010     99.5710
     286      96       2     -0.8476      4.5940     25.2660     95.2000
     287      96       1      0.4238      3.6380     25.5000     95.1960
     288      96       1      0.4238      4.7580     24.8970     94.3120
     289      97       2     -0.8476     10.9660      0.4870    107.6640
     290      97       1      0.4238     10.8350      1.4230    107.4750
     291      97       1      0.4238     10.5580      0.0920    106.8830
     292      98       2     -0.8476      6.5800     12.9920    109.6910
     293      98       1      0.4238      6.4300     13.8860    109.9720
     294      98       1      0.4238      6.4290     12.4990    110.4810
     295      99       2     -0.8476      5.1600     13.7440     87.9540
     296      99       1      0.4238      6.0480     13.4220     88.2070
     297      99       1      0.4238      5.0080     14.4930     88.5280
     298     100       2     -0.8476      1.4880      7.7540    111.8380
     299     100       1      0.4238      0.7780      8.3230    112.1950
     300     100       1      0.4238      1.5430      8.0430    110.9210
     301     101       2     -0.8476      3.3480     27.0870    124.3690
     302     101       1      0.4238      3.8470     27.2550    125.2250
     303     101       1      0.4238      2.8130     26.3350    124.6610
     304     102       2     -0.8476     10.3900      6.3860     98.8280
     305     102       1      0.4238     10.6880      6.4840     99.7310
     306     102       1      0.4238      9.8440      5.5890     98.9210
     307     103       2     -0.8476      1.6780     21.9420     81.0350
     308     103       1      0.4238      1.2720     21.2800     81.5920
     309     103       1      0.4238      1.4980     22.8090     81.4930
     310     104       2     -0.8476      9.6300     21.5470     83.0000
     311     104       1      0.4238      9.6010     22.4710     82.6430
     312     104       1      0.4238      9.2870     20.9540     82.3120
     313     105       2     -0.8476      2.3440     10.5710     82.6240
     314     105       1      0.4238      2.1220     10.7530     83.5530
     315     105       1      0.4238      2.9470      9.7910     82.6170
     316     106       2     -0.8476      2.5820     27.6350    102.0630
     317     106       1      0.4238      1.8260     27.3340    102.6100
     318     106       1      0.4238      2.1410     27.8730    101.2270
     319     107       2     -0.8476      2.6190     28.0470    117.8200
     320     107       1      0.4238      2.4690     28.9940    117.6110
     321     107       1      0.4238      1.9710     27.7560    118.5000
     322     108       2     -0.8476      8.1230      7.8900    114.1050
     323     108       1      0.4238      8.2830      7.5390    115.0390
     324     108       1      0.4238      8.7290      8.6340    114.0000
     325     109       2     -0.8476     13.3850      9.7690    109.4530
     326     109       1      0.4238     13.8560     10.3910    110.0620
     327     109       1      0.4238     12.5990      9.5130    109.9650
     328     110       2     -0.8476      0.8230     23.6680     82.8880
     329     110       1      0.4238      1.6360     23.3160     83.3400
     330     110       1      0.4238      0.2530     23.9780     83.6400
     331     111       2     -0.8476     13.2200     24.4940     93.0920
     332     111       1      0.4238     12.8910     25.3830     93.2870
     333     111       1      0.4238     13.0560     23.9180     93.8530
     334     112       2     -0.8476      6.9110     19.4580     97.3350
     335     112       1      0.4238      7.5170     20.1180     96.9570
     336     112       1      0.4238      6.3150     19.1360     96.5880
     337     113       2     -0.8476     13.3360     24.4610    116.7850
     338     113       1      0.4238     13.2390     25.1640    117.4340
     339     113       1      0.4238     13.6930     23.7130    117.2440
     340     114       2     -0.8476      2.8340     15.0430    114.3740
     341     114       1      0.4238      2.2790     14.8070    115.1230
     342     114       1      0.4238      3.6070     14.5490    114.5030
     343     115       2     -0.8476     23.1240     20.6290    125.6240
     344     115       1      0.4238     22.1100     20.5860    125.3710
     345     115       1      0.4238     23.2950     19.6630    125.8290
     346     116       2     -0.8476      5.1790     20.8900    107.3870
     347     116       1      0.4238      4.6180     21.6060    107.6460
     348     116       1      0.4238      5.1960     20.2110    108.1070
     349     117       2     -0.8476     16.1920     22.4030     83.7820
     350     117       1      0.4238     16.3630     22.8810     84.6220
     351     117       1      0.4238     16.4270     23.0650     83.0860
     352     118       2     -0.8476     13.5400     22.2200     82.7480
     353     118       1      0.4238     12.9650     22.4750     83.4620
     354     118       1      0.4238     14.4280     22.4040     83.0740
     355     119       2     -0.8476      9.5250     28.5410    110.1510
     356     119       1      0.4238     10.4150     28.4180    109.6860
     357     119       1      0.4238      9.1970     27.6710    110.2390
     358     120       2     -0.8476      8.3890     18.1650    110.9920
     359     120       1      0.4238      7.9680     17.7700    110.2100
     360     120       1      0.4238      8.4170     17.4510    111.6410
     361     121       2     -0.8476     10.4380     21.2370    121.0090
     362     121       1      0.4238     10.8460     20.7400    120.2680
     363     121       1      0.4238      9.5770     21.4800    120.7120
     364     122       2     -0.8476     15.3260     26.9680    111.4020
     365     122       1      0.4238     14.4530     26.7360    110.9280
     366     122       1      0.4238     15.0680     27.6200    112.0330
     367     123       2     -0.8476      8.1810     23.4650     87.6370
     368     123       1      0.4238      9.0070     23.9370     87.7030
     369     123       1      0.4238      7.5170     24.1170     87.3120
     370     124       2     -0.8476     19.6590     25.5520     97.4490
     371     124       1      0.4238     20.1820     26.3460     97.4990
     372     124       1      0.4238     18.7340     25.8580     97.3810
     373     125       2     -0.8476      1.6830     25.6670    106.3320
     374     125       1      0.4238      2.5800     25.9070    106.4260
     375     125       1      0.4238      1.4850     25.2270    107.1260
     376     126       2     -0.8476     23.3310     21.6190     98.0690
     377     126       1      0.4238     23.1370     22.5160     98.4560
     378     126       1      0.4238     22.6630     20.9850     98.4500
     379     127       2     -0.8476     16.5070     17.1700    101.0060
     380     127       1      0.4238     17.2260     17.0060    100.2950
     381     127       1      0.4238     16.0300     16.2970    101.0820
     382     128       2     -0.8476      3.7900     23.3180    106.0670
     383     128       1      0.4238      4.1110     23.6840    106.9010
     384     128       1      0.4238      2.8350     23.1960    106.2480
     385     129       2     -0.8476     11.2200     28.8150    125.7090
     386     129       1      0.4238     11.8740     28.1050    125.4310
     387     129       1      0.4238     11.4820     28.8800    126.6730
     388     130       2     -0.8476      0.7470      4.4690     90.5790
     389     130       1      0.4238      0.4260      3.5680     90.3390
     390     130       1      0.4238      1.5050      4.5850     89.9900
     391     131       2     -0.8476     15.7210      2.9840    125.0340
     392     131       1      0.4238     15.9170      3.2850    125.9860
     393     131       1      0.4238     14.9480      3.4700    124.7760
     394     132       2     -0.8476      5.3560      5.3880     96.0460
     395     132       1      0.4238      5.8840      6.0640     96.4610
     396     132       1      0.4238      5.5920      4.6220     96.5370
     397     133       2     -0.8476      1.8890      5.5850    109.5410
     398     133       1      0.4238      1.9380      6.5020    109.2630
     399     133       1      0.4238      1.0150      5.3120    109.1450
     400     134       2     -0.8476      2.6810      2.5480    121.1520
     401     134       1      0.4238      2.5980      1.5900    120.9940
     402     134       1      0.4238      3.3700      2.6570    121.8700
     403     135       2     -0.8476     26.8970     12.0940     80.6790
     404     135       1      0.4238     26.5140     11.2800     80.3040
     405     135       1      0.4238     27.8750     11.9270     80.5530
     406     136       2     -0.8476      2.1890      1.7060    104.8780
     407     136       1      0.4238      1.4640      1.0910    104.7100