
    3308 atoms
    2200 bonds
    1100 angles
       4 atom types
       1 bond types
       1 angle types

      0.0000     30.0000 xlo xhi
      0.0000     30.0000 ylo yhi
      0.0000     60.0000 zlo zhi

 Masses

 1  1.007940
 2 15.999400
 3 22.989771
 4 35.452999

Atoms

       1       1       2     -0.8476      3.6680     10.0820     78.9040
       2       1       1      0.4238      3.2240     10.4510     78.1010
       3       1       1      0.4238      3.0920     10.3790     79.6270
       4       2       2     -0.8476      6.0330      4.8760     83.8910
       5       2       1      0.4238      6.0780      5.2240     84.7980
       6       2       1      0.4238      6.5920      4.0880     83.9610
       7       3       2     -0.8476      0.9750     14.0070    101.5670
       8       3       1      0.4238      1.1370     13.2630    100.9660
       9       3       1      0.4238      0.6190     13.5390    102.3600
      10       4       2     -0.8476      5.1860     16.6960     75.0720
      11       4       1      0.4238      6.0830     16.9790     74.8160
      12       4       1      0.4238      5.3370     15.8320     75.4900
      13       5       2     -0.8476     14.4370      5.7940     93.5560
      14       5       1      0.4238     13.5240      5.3190     93.5320
      15       5       1      0.4238     14.9840      5.1130     93.9730
      16       6       2     -0.8476      8.3240     13.8110     84.3320
      17       6       1      0.4238      8.6330     13.3480     85.1120
      18       6       1      0.4238      8.5060     13.1160     83.6450
      19       7       2     -0.8476     11.4620     26.0260     94.3730
      20       7       1      0.4238     11.3860     26.6950     95.0760
      21       7       1      0.4238     10.6190     26.0800     93.9360
      22       8       2     -0.8476      3.7860     16.3180     64.3100
      23       8       1      0.4238      3.7810     15.3880     64.1960
      24       8       1      0.4238      4.5280     16.5800     63.7810
      25       9       2     -0.8476     16.1260     14.7010     67.5770
      26       9       1      0.4238     16.0700     14.2720     66.7260
      27       9       1      0.4238     16.8050     15.4540     67.4450
      28      10       2     -0.8476      2.7500      8.8440     72.6290
      29      10       1      0.4238      2.1100      8.2900     72.9980
      30      10       1      0.4238      2.1640      9.2450     71.9620
      31      11       2     -0.8476      4.2400      7.0370     90.0810
      32      11       1      0.4238      4.6560      7.8310     89.6580
      33      11       1      0.4238      3.7860      7.4280     90.8120
      34      12       2     -0.8476      7.1720      6.9990    101.5810
      35      12       1      0.4238      7.0400      7.5500    102.3270
      36      12       1      0.4238      6.2440      6.7560    101.2630
      37      13       2     -0.8476     10.6740      8.9090     67.9860
      38      13       1      0.4238     10.9980      8.8710     68.9320
      39      13       1      0.4238      9.7480      9.2700     68.0750
      40      14       2     -0.8476      0.0020      5.6670     77.5910
      41      14       1      0.4238      0.4830      5.9900     76.8300
      42      14       1      0.4238      0.6080      5.7810     78.3470
      43      15       2     -0.8476      9.8820      9.1560     77.9160
      44      15       1      0.4238      9.5740      9.7530     78.5970
      45      15       1      0.4238     10.0210      8.2640     78.2890
      46      16       2     -0.8476      7.9640      6.1070     92.4530
      47      16       1      0.4238      8.2420      5.2060     92.5990
      48      16       1      0.4238      8.4220      6.5450     93.2370
      49      17       2     -0.8476     24.1770     14.2710    101.1260
      50      17       1      0.4238     23.5340     13.9420    100.4590
      51      17       1      0.4238     25.0620     14.0820    100.6820
      52      18       2     -0.8476      6.3160      5.2880     90.4950
      53      18       1      0.4238      6.6400      5.6310     91.3630
      54      18       1      0.4238      5.5630      5.8520     90.2800
      55      19       2     -0.8476      1.6610      6.6810     64.9430
      56      19       1      0.4238      1.9430      5.7390     64.9810
      57      19       1      0.4238      0.7780      6.5990     64.4830
      58      20       2     -0.8476      4.8210     20.6030     74.2390
      59      20       1      0.4238      5.4660     20.7820     74.9630
      60      20       1      0.4238      5.3840     20.9140     73.4560
      61      21       2     -0.8476     15.0220     20.8550     75.8310
      62      21       1      0.4238     14.2220     20.8090     76.2920
      63      21       1      0.4238     14.6730     21.0570     74.9180
      64      22       2     -0.8476      1.3390      3.7820     85.8140
      65      22       1      0.4238      0.8390      3.4250     85.0870
      66      22       1      0.4238      1.7750      3.0770     86.1380
      67      23       2     -0.8476      0.4850     15.1370     85.4760
      68      23       1      0.4238      0.6440     15.4250     86.3490
      69      23       1      0.4238      0.3120     15.9610     84.9750
      70      24       2     -0.8476     13.1430     13.7950     96.4790
      71      24       1      0.4238     12.9310     13.5530     97.3560
      72      24       1      0.4238     13.5230     14.6620     96.5190
      73      25       2     -0.8476     12.4210     20.5950     94.3430
      74      25       1      0.4238     12.3300     20.6210     95.3030
      75      25       1      0.4238     12.2810     21.5260     94.0630
      76      26       2     -0.8476      5.6080     23.9180     75.9590
      77      26       1      0.4238      4.8400     23.6220     75.5450
      78      26       1      0.4238      6.0370     24.3360     75.2080
      79      27       2     -0.8476     10.4260      7.6040     65.4040
      80      27       1      0.4238     10.7610      8.4010     64.9940
      81      27       1      0.4238     10.2480      7.8890     66.3080
      82      28       2     -0.8476      8.5690     25.6840     75.2110
      83      28       1      0.4238      9.1230     25.5420     76.0150
      84      28       1      0.4238      8.8050     26.5950     74.9270
      85      29       2     -0.8476      4.2690     22.7520     79.2650
      86      29       1      0.4238      4.1490     23.6800     78.8880
      87      29       1      0.4238      5.0610     22.7960     79.7760
      88      30       2     -0.8476      3.5990     13.6890     86.5830
      89      30       1      0.4238      3.4300     12.8760     87.0620
      90      30       1      0.4238      4.5610     13.7690     86.6610
      91      31       2     -0.8476     19.9520      1.9610     89.1640
      92      31       1      0.4238     20.4140      1.0790     89.0790
      93      31       1      0.4238     20.6670      2.6530     89.0130
      94      32       2     -0.8476     23.5170     11.0390    105.7840
      95      32       1      0.4238     22.6870     10.5720    105.8940
      96      32       1      0.4238     24.0100     10.5060    106.3610
      97      33       2     -0.8476     22.5720      6.2420     66.4780
      98      33       1      0.4238     21.7050      5.8450     66.8300
      99      33       1      0.4238     22.9510      5.6590     65.8580
     100      34       2     -0.8476     10.9260      5.3650     64.0180
     101      34       1      0.4238     11.1380      4.7690     64.7540
     102      34       1      0.4238     10.6570      6.2120     64.4930
     103      35       2     -0.8476      8.6470      4.3140     82.2780
     104      35       1      0.4238      7.9640      3.6110     82.3260
     105      35       1      0.4238      8.0430      5.0640     82.1530
     106      36       2     -0.8476      8.3810     17.3190     86.2750
     107      36       1      0.4238      7.5160     17.3400     86.6950
     108      36       1      0.4238      8.4310     18.2630     86.0090
     109      37       2     -0.8476      4.3420     11.3880     88.2710
     110      37       1      0.4238      4.8420     10.6970     88.6780
     111      37       1      0.4238      4.9030     12.1480     88.5780
     112      38       2     -0.8476      1.6700     15.6750     92.1660
     113      38       1      0.4238      2.1200     15.9500     92.9740
     114      38       1      0.4238      0.7630     15.5170     92.4680
     115      39       2     -0.8476     16.4700     28.0890     65.1810
     116      39       1      0.4238     16.8540     27.2300     65.4990
     117      39       1      0.4238     15.5330     27.8560     65.0880
     118      40       2     -0.8476      0.8020     25.0840     68.5230
     119      40       1      0.4238      0.5790     26.0650     68.5050
     120      40       1      0.4238      1.7950     25.1630     68.4450
     121      41       2     -0.8476      4.2990     17.7740     70.1690
     122      41       1      0.4238      3.3030     17.8030     70.3220
     123      41       1      0.4238      4.5330     18.7550     69.9240
     124      42       2     -0.8476      8.8920     12.9770     68.3210
     125      42       1      0.4238      8.1190     12.4780     68.4430
     126      42       1      0.4238      9.3420     12.5570     67.5360
     127      43       2     -0.8476      2.7080     20.9690     87.5040
     128      43       1      0.4238      2.5890     20.9450     86.5560
     129      43       1      0.4238      3.1230     21.8350     87.5490
     130      44       2     -0.8476      2.4280     12.7310     93.4870
     131      44       1      0.4238      2.7190     12.0730     92.8300
     132      44       1      0.4238      2.5820     13.5420     93.0080
     133      45       2     -0.8476      2.1740     18.4680     65.2120
     134      45       1      0.4238      2.6320     17.6280     65.2030
     135      45       1      0.4238      2.9310     19.1200     65.2810
     136      46       2     -0.8476      5.0480      9.0460     99.5780
     137      46       1      0.4238      5.0640      9.8890    100.0590
     138      46       1      0.4238      4.6220      9.2240     98.7430
     139      47       2     -0.8476     12.3900     27.3070    100.3600
     140      47       1      0.4238     11.8450     28.1130    100.2930
     141      47       1      0.4238     12.0450     26.9200    101.1750
     142      48       2     -0.8476     18.8700     21.4600     91.9710
     143      48       1      0.4238     17.9030     21.2880     91.7210
     144      48       1      0.4238     19.0740     20.6910     92.5910
     145      49       2     -0.8476     13.6120     17.6800     81.6220
     146      49       1      0.4238     13.7440     17.4140     82.5080
     147      49       1      0.4238     14.5260     17.8310     81.3470
     148      50       2     -0.8476      1.2870     24.1320     86.7370
     149      50       1      0.4238      1.2350     23.9240     87.7310
     150      50       1      0.4238      2.0880     24.7090     86.6390
     151      51       2     -0.8476      6.3650      2.6740     91.0590
     152      51       1      0.4238      5.7990      3.4370     90.8490
     153      51       1      0.4238      7.1750      3.0550     91.4030
     154      52       2     -0.8476      9.3390      6.7380     94.9010
     155      52       1      0.4238      8.9040      7.2360     95.6340
     156      52       1      0.4238      9.4040      5.8380     95.2220
     157      53       2     -0.8476     15.4140      6.5690     65.5010
     158      53       1      0.4238     16.2240      6.8580     65.1280
     159      53       1      0.4238     14.8080      6.7000     64.6710
     160      54       2     -0.8476      7.5710      3.7980     97.0950
     161      54       1      0.4238      6.9660      4.4040     96.4940
     162      54       1      0.4238      7.4460      4.0950     98.0280
     163      55       2     -0.8476      9.9350     12.8760     73.1910
     164      55       1      0.4238      9.7090     12.0980     72.6340
     165      55       1      0.4238      9.4720     12.7660     74.0180
     166      56       2     -0.8476      7.0600      2.0740     82.8300
     167      56       1      0.4238      7.6500      1.6190     83.5280
     168      56       1      0.4238      6.1480      1.7960     83.0350
     169      57       2     -0.8476     10.8950     19.3250    102.0640
     170      57       1      0.4238     10.3670     18.7680    102.6690
     171      57       1      0.4238     11.7860     18.9580    102.2290
     172      58       2     -0.8476     13.8910      1.9190     65.9920
     173      58       1      0.4238     14.1980      2.6810     66.4220
     174      58       1      0.4238     13.2120      1.5770     66.5780
     175      59       2     -0.8476      8.8230     10.5810     71.8270
     176      59       1      0.4238      8.1830     10.7530     71.1480
     177      59       1      0.4238      8.3890     10.0610     72.5340
     178      60       2     -0.8476      9.0780     11.9670     75.7340
     179      60       1      0.4238      8.2280     11.5610     75.9930
     180      60       1      0.4238      9.5120     12.1940     76.5600
     181      61       2     -0.8476     10.2820      0.6400     65.0530
     182      61       1      0.4238     10.3670      0.9590     66.0160
     183      61       1      0.4238      9.7430      1.3230     64.6670
     184      62       2     -0.8476      4.6180      8.1250     70.7770
     185      62       1      0.4238      5.4050      7.9190     71.3140
     186      62       1      0.4238      4.0020      8.4580     71.4220
     187      63       2     -0.8476      3.4030      4.6870     72.8150
     188      63       1      0.4238      3.1090      5.2720     72.0970
     189      63       1      0.4238      3.8170      3.9730     72.3270
     190      64       2     -0.8476      3.2760      7.4650     82.3250
     191      64       1      0.4238      2.7720      6.9910     82.9640
     192      64       1      0.4238      3.6040      8.2880     82.7530
     193      65       2     -0.8476      2.8910      5.0440     95.6130
     194      65       1      0.4238      2.2600      4.5200     96.1500
     195      65       1      0.4238      2.3030      5.5100     95.0200
     196      66       2     -0.8476      1.8400      8.2650     91.6620
     197      66       1      0.4238      1.6800      8.0440     90.7470
     198      66       1      0.4238      1.8340      9.2110     91.7330
     199      67       2     -0.8476      0.7370     17.9020    100.0900
     200      67       1      0.4238      0.4590     18.7920    100.3520
     201      67       1      0.4238      0.8660     17.9490     99.1470
     202      68       2     -0.8476      9.9780      7.8750     87.9480
     203      68       1      0.4238      9.5890      7.6260     88.8450
     204      68       1      0.4238     10.4360      8.6560     88.1870
     205      69       2     -0.8476      9.9270      4.1850     95.8050
     206      69       1      0.4238      9.0560      3.9350     96.2020
     207      69       1      0.4238     10.3600      3.3250     95.6650
     208      70       2     -0.8476      2.3780      5.8060     79.2530
     209      70       1      0.4238      2.1570      6.1610     80.0990
     210      70       1      0.4238      3.3010      6.0320     79.1260
     211      71       2     -0.8476      6.3820     22.2710     65.3190
     212      71       1      0.4238      5.5500     22.0350     64.8470
     213      71       1      0.4238      6.8590     21.4720     65.1920
     214      72       2     -0.8476      4.0170      3.9050     82.4180
     215      72       1      0.4238      3.1420      4.0420     82.1320
     216      72       1      0.4238      4.5820      4.7270     82.2950
     217      73       2     -0.8476      2.3440     20.4720     84.6310
     218      73       1      0.4238      2.9320     20.8210     83.9450
     219      73       1      0.4238      1.4670     20.5480     84.1380
     220      74       2     -0.8476     20.6130     13.6160     74.0660
     221      74       1      0.4238     20.7390     13.9590     73.2180
     222      74       1      0.4238     19.6190     13.8160     74.2500
     223      75       2     -0.8476     11.4920      5.5480     97.8460
     224      75       1      0.4238     11.1630      5.2040     97.0400
     225      75       1      0.4238     11.3860      6.4790     97.8590
     226      76       2     -0.8476      1.7870      9.5180     87.5150
     227      76       1      0.4238      2.1320      9.5750     86.6460
     228      76       1      0.4238      1.8600     10.4060     87.7870
     229      77       2     -0.8476      4.1270      1.8700     95.7610
     230      77       1      0.4238      3.8300      2.2720     94.9890
     231      77       1      0.4238      4.7300      2.5620     96.0980
     232      78       2     -0.8476     14.5260     10.5320     83.1370
     233      78       1      0.4238     14.1620      9.7330     83.5030
     234      78       1      0.4238     14.4660     10.4200     82.1940
     235      79       2     -0.8476     26.1240     16.5940     79.8070
     236      79       1      0.4238     26.9480     16.8640     80.2440
     237      79       1      0.4238     26.1370     17.0480     78.9000
     238      80       2     -0.8476      8.8760     28.4370     68.5790
     239      80       1      0.4238      9.2270     27.5770     68.3580
     240      80       1      0.4238      8.7900     28.3980     69.5330
     241      81       2     -0.8476      5.5730     14.8040     82.0900
     242      81       1      0.4238      5.9590     15.3390     82.8080
     243      81       1      0.4238      5.8690     15.4130     81.3310
     244      82       2     -0.8476     16.2830      7.3540     85.7810
     245      82       1      0.4238     15.6400      8.0580     85.4490
     246      82       1      0.4238     15.9730      6.5600     85.3790
     247      83       2     -0.8476     22.8720     18.4410     79.7880
     248      83       1      0.4238     22.2010     17.8640     79.3790
     249      83       1      0.4238     22.3350     18.9810     80.4250
     250      84       2     -0.8476     10.1050      0.8410    102.1110
     251      84       1      0.4238      9.4880      1.4500    101.6310
     252      84       1      0.4238     10.6320      1.4180    102.7050
     253      85       2     -0.8476      0.7420     20.6470    100.4240
     254      85       1      0.4238      0.1630     21.2020     99.8550
     255      85       1      0.4238      1.5320     20.4100     99.8370
     256      86       2     -0.8476      5.4580     13.0970     67.5890
     257      86       1      0.4238      5.6730     13.0190     66.6120
     258      86       1      0.4238      4.8990     13.8940     67.6570
     259      87       2     -0.8476     27.8490      9.8680     82.1730
     260      87       1      0.4238     27.1700      9.7200     82.8630
     261      87       1      0.4238     27.4030     10.4190     81.4890
     262      88       2     -0.8476      4.5520      1.3700     83.3300
     263      88       1      0.4238      4.2740      2.1940     82.9530
     264      88       1      0.4238      4.2350      0.8010     82.5710
     265      89       2     -0.8476      4.5940     25.2660     78.2000
     266      89       1      0.4238      3.6380     25.5000     78.1960
     267      89       1      0.4238      4.7580     24.8970     77.3120
     268      90       2     -0.8476     10.9660      0.4870     90.6640
     269      90       1      0.4238     10.8350      1.4230     90.4750
     270      90       1      0.4238     10.5580      0.0920     89.8830
     271      91       2     -0.8476      6.5800     12.9920     92.6910
     272      91       1      0.4238      6.4300     13.8860     92.9720
     273      91       1      0.4238      6.4290     12.4990     93.4810
     274      92       2     -0.8476      5.1600     13.7440     70.9540
     275      92       1      0.4238      6.0480     13.4220     71.2070
     276      92       1      0.4238      5.0080     14.4930     71.5280
     277      93       2     -0.8476      1.4880      7.7540     94.8380
     278      93       1      0.4238      0.7780      8.3230     95.1950
     279      93       1      0.4238      1.5430      8.0430     93.9210
     280      94       2     -0.8476      3.3480     27.0870    107.3690
     281      94       1      0.4238      3.8470     27.2550    108.2250
     282      94       1      0.4238      2.8130     26.3350    107.6610
     283      95       2     -0.8476     10.3900      6.3860     81.8280
     284      95       1      0.4238     10.6880      6.4840     82.7310
     285      95       1      0.4238      9.8440      5.5890     81.9210
     286      96       2     -0.8476      1.6780     21.9420     64.0350
     287      96       1      0.4238      1.2720     21.2800     64.5920
     288      96       1      0.4238      1.4980     22.8090     64.4930
     289      97       2     -0.8476      9.6300     21.5470     66.0000
     290      97       1      0.4238      9.6010     22.4710     65.6430
     291      97       1      0.4238      9.2870     20.9540     65.3120
     292      98       2     -0.8476      2.3440     10.5710     65.6240
     293      98       1      0.4238      2.1220     10.7530     66.5530
     294      98       1      0.4238      2.9470      9.7910     65.6170
     295      99       2     -0.8476      2.5820     27.6350     85.0630
     296      99       1      0.4238      1.8260     27.3340     85.6100
     297      99       1      0.4238      2.1410     27.8730     84.2270
     298     100       2     -0.8476      2.6190     28.0470    100.8200
     299     100       1      0.4238      2.4690     28.9940    100.6110
     300     100       1      0.4238      1.9710     27.7560    101.5000
     301     101       2     -0.8476      8.1230      7.8900     97.1050
     302     101       1      0.4238      8.2830      7.5390     98.0390
     303     101       1      0.4238      8.7290      8.6340     97.0000
     304     102       2     -0.8476     13.3850      9.7690     92.4530
     305     102       1      0.4238     13.8560     10.3910     93.0620
     306     102       1      0.4238     12.5990      9.5130     92.9650
     307     103       2     -0.8476      0.8230     23.6680     65.8880
     308     103       1      0.4238      1.6360     23.3160     66.3400
     309     103       1      0.4238      0.2530     23.9780     66.6400
     310     104       2     -0.8476      2.0830     28.3320     70.3260
     311     104       1      0.4238      1.5580     28.5140     71.1150
     312     104       1      0.4238      1.4960     27.7370     69.8110
     313     105       2     -0.8476     13.2200     24.4940     76.0920
     314     105       1      0.4238     12.8910     25.3830     76.2870
     315     105       1      0.4238     13.0560     23.9180     76.8530
     316     106       2     -0.8476      0.9950     28.0210     73.0150
     317     106       1      0.4238      0.0130     27.9810     73.0430
     318     106       1      0.4238      1.2980     27.1190     73.2630
     319     107       2     -0.8476      2.7100      6.1850     70.5400
     320     107       1      0.4238      2.4670      6.2360     69.5610
     321     107       1      0.4238      3.4100      6.8550     70.5800
     322     108       2     -0.8476      6.9110     19.4580     80.3350
     323     108       1      0.4238      7.5170     20.1180     79.9570
     324     108       1      0.4238      6.3150     19.1360     79.5880
     325     109       2     -0.8476     13.3360     24.4610     99.7850
     326     109       1      0.4238     13.2390     25.1640    100.4340
     327     109       1      0.4238     13.6930     23.7130    100.2440
     328     110       2     -0.8476     23.1240     20.6290    108.6240
     329     110       1      0.4238     22.1100     20.5860    108.3710
     330     110       1      0.4238     23.2950     19.6630    108.8290
     331     111       2     -0.8476      5.1790     20.8900     90.3870
     332     111       1      0.4238      4.6180     21.6060     90.6460
     333     111       1      0.4238      5.1960     20.2110     91.1070
     334     112       2     -0.8476     16.1920     22.4030     66.7820
     335     112       1      0.4238     16.3630     22.8810     67.6220
     336     112       1      0.4238     16.4270     23.0650     66.0860
     337     113       2     -0.8476     13.5400     22.2200     65.7480
     338     113       1      0.4238     12.9650     22.4750     66.4620
     339     113       1      0.4238     14.4280     22.4040     66.0740
     340     114       2     -0.8476      9.5250     28.5410     93.1510
     341     114       1      0.4238     10.4150     28.4180     92.6860
     342     114       1      0.4238      9.1970     27.6710     93.2390
     343     115       2     -0.8476      8.3890     18.1650     93.9920
     344     115       1      0.4238      7.9680     17.7700     93.2100
     345     115       1      0.4238      8.4170     17.4510     94.6410
     346     116       2     -0.8476     10.4380     21.2370    104.0090
     347     116       1      0.4238     10.8460     20.7400    103.2680
     348     116       1      0.4238      9.5770     21.4800    103.7120
     349     117       2     -0.8476     15.3260     26.9680     94.4020
     350     117       1      0.4238     14.4530     26.7360     93.9280
     351     117       1      0.4238     15.0680     27.6200     95.0330
     352     118       2     -0.8476      3.2710     18.9740    106.1870
     353     118       1      0.4238      3.4580     18.0730    105.9880
     354     118       1      0.4238      3.3200     19.4290    105.3130
     355     119       2     -0.8476      8.1810     23.4650     70.6370
     356     119       1      0.4238      9.0070     23.9370     70.7030
     357     119       1      0.4238      7.5170     24.1170     70.3120
     358     120       2     -0.8476     10.9290     14.7500     68.7180
     359     120       1      0.4238     10.0500     14.5410     68.4080
     360     120       1      0.4238     11.4010     13.8790     68.7170
     361     121       2     -0.8476     19.6590     25.5520     80.4490
     362     121       1      0.4238     20.1820     26.3460     80.4990
     363     121       1      0.4238     18.7340     25.8580     80.3810
     364     122       2     -0.8476      2.0860     25.4520     81.1940
     365     122       1      0.4238      2.1740     25.9230     80.3940
     366     122       1      0.4238      1.2720     25.8690     81.6040
     367     123       2     -0.8476     23.3310     21.6190     81.0690
     368     123       1      0.4238     23.1370     22.5160     81.4560
     369     123       1      0.4238     22.6630     20.9850     81.4500
     370     124       2     -0.8476     16.5070     17.1700     84.0060
     371     124       1      0.4238     17.2260     17.0060     83.2950
     372     124       1      0.4238     16.0300     16.2970     84.0820
     373     125       2     -0.8476      3.7900     23.3180     89.0670
     374     125       1      0.4238      4.1110     23.6840     89.9010
     375     125       1      0.4238      2.8350     23.1960     89.2480
     376     126       2     -0.8476      0.7470      4.4690     73.5790
     377     126       1      0.4238      0.4260      3.5680     73.3390
     378     126       1      0.4238      1.5050      4.5850     72.9900
     379     127       2     -0.8476     15.7210      2.9840    108.0340
     380     127       1      0.4238     15.9170      3.2850    108.9860
     381     127       1      0.4238     14.9480      3.4700    107.7760
     382     128       2     -0.8476      5.3560      5.3880     79.0460
     383     128       1      0.4238      5.8840      6.0640     79.4610
     384     128       1      0.4238      5.5920      4.6220     79.5370
     385     129       2     -0.8476      1.8890      5.5850     92.5410
     386     129       1      0.4238      1.9380      6.5020     92.2630
     387     129       1      0.4238      1.0150      5.3120     92.1450
     388     130       2     -0.8476      2.6810      2.5480    104.1520
     389     130       1      0.4238      2.5980      1.5900    103.9940
     390     130       1      0.4238      3.3700      2.6570    104.8700
     391     131       2     -0.8476     10.7040      6.7210     78.8830
     392     131       1      0.4238     10.9010      6.9120     79.8360
     393     131       1      0.4238     10.1270      5.9720     78.9980
     394     132       2     -0.8476     26.8970     12.0940     63.6790
     395     132       1      0.4238     26.5140     11.2800     63.3040
     396     132       1      0.4238     27.8750     11.9270     63.5530
     397     133       2     -0.8476      2.1890      1.7060     87.8780
     398     133       1      0.4238      1.4640      1.0910     87.7100
     399     133       1      0.4238      2.1250      1.8050     88.9000
     400     134       2     -0.8476     11.7630     19.6140     72.9580
     401     134       1      0.4238     12.2790     20.4050     72.8660
     402     134       1      0.4238     12.4350     18.9050     72.9010
     403     135       2     -0.8476      7.8640     10.6030     91.9500
     404     135       1      0.4238      7.4690     11.2750     92.5070
     405     135       1      0.4238      7.1540      9.9920     91.7830
     406     136       2     -0.8476      4.6470      6.6320    100.5340
     407     136       1      0.4238      3.8420      6.1760    100.1980