
    1504 atoms
    2256 bonds
    4512 angles
    9024 dihedrals

       2 atom types
       2 bond types
       2 angle types
       2 dihedral types

  0.0000 29.8200 xlo xhi
  0.0000 29.4720 ylo yhi
-20.0000 20.0000 zlo zhi

 Masses


       1 12.01070
       2  1.00794

 Atoms

       1   1   1      0.0000      4.9965      0.0327     75.9643
       2   1   1      0.0000      6.3900      0.0000     75.9643
       3   1   1      0.0000      4.2966      1.2408     75.9643
       4   1   1      0.0000      7.1000      1.2298     75.9643
       5   1   1      0.0000      9.2300      0.0000     75.9643
       6   1   1      0.0000     10.6500      0.0000     75.9643
       7   1   1      0.0000      8.5200      1.2298     75.9643
       8   1   1      0.0000     11.3600      1.2298     75.9643
       9   1   1      0.0000     13.4900      0.0000     75.9643
      10   1   1      0.0000     14.9100      0.0000     75.9643
      11   1   1      0.0000     12.7800      1.2298     75.9643
      12   1   1      0.0000     15.6200      1.2298     75.9643
      13   1   1      0.0000     17.7500      0.0000     75.9643
      14   1   1      0.0000     19.1700      0.0000     75.9643
      15   1   1      0.0000     17.0400      1.2298     75.9643
      16   1   1      0.0000     19.8800      1.2298     75.9643
      17   1   1      0.0000     22.0100      0.0000     75.9643
      18   1   1      0.0000     23.4300      0.0000     75.9643
      19   1   1      0.0000     21.3000      1.2298     75.9643
      20   1   1      0.0000     24.1400      1.2298     75.9643
      21   1   1      0.0000     26.2700      0.0000     75.9643
      22   1   1      0.0000     27.6900      0.0000     75.9643
      23   1   1      0.0000     25.5600      1.2298     75.9643
      24   1   1      0.0000     28.4000      1.2298     75.9643
      25   1   1      0.0000     30.5300      0.0000     75.9643
      26   1   1      0.0000     31.9500      0.0000     75.9643
      27   1   1      0.0000     29.8200      1.2298     75.9643
      28   1   1      0.0000     32.6600      1.2298     75.9643
      29   1   1      0.0000      4.9700      2.4595     75.9643
      30   1   1      0.0000      6.3900      2.4595     75.9643
      31   1   1      0.0000      4.2600      3.6893     75.9643
      32   1   1      0.0000      7.1000      3.6893     75.9643
      33   1   1      0.0000      9.2300      2.4595     75.9643
      34   1   1      0.0000     10.6500      2.4595     75.9643
      35   1   1      0.0000      8.5200      3.6893     75.9643
      36   1   1      0.0000     11.3600      3.6893     75.9643
      37   1   1      0.0000     13.4900      2.4595     75.9643
      38   1   1      0.0000     14.9100      2.4595     75.9643
      39   1   1      0.0000     12.7800      3.6893     75.9643
      40   1   1      0.0000     15.5973      3.5850     76.0476
      41   1   1      0.0000     17.7500      2.4595     75.9643
      42   1   1      0.0000     19.1700      2.4595     75.9643
      43   1   1      0.0000     16.9852      3.5695     76.0390
      44   1   1      0.0000     19.8800      3.6893     75.9643
      45   1   1      0.0000     22.0100      2.4595     75.9643
      46   1   1      0.0000     23.4300      2.4595     75.9643
      47   1   1      0.0000     21.3000      3.6893     75.9643
      48   1   1      0.0000     24.1400      3.6893     75.9643
      49   1   1      0.0000     26.2700      2.4595     75.9643
      50   1   1      0.0000     27.6900      2.4595     75.9643
      51   1   1      0.0000     25.5600      3.6893     75.9643
      52   1   1      0.0000     28.4000      3.6893     75.9643
      53   1   1      0.0000     30.5300      2.4595     75.9643
      54   1   1      0.0000     31.9500      2.4595     75.9643
      55   1   1      0.0000     29.8200      3.6893     75.9643
      56   1   1      0.0000     32.6600      3.6893     75.9643
      57   1   1      0.0000      4.9700      4.9190     75.9643
      58   1   1      0.0000      6.3900      4.9190     75.9643
      59   1   1      0.0000      4.2600      6.1488     75.9643
      60   1   1      0.0000      7.1000      6.1488     75.9643
      61   1   1      0.0000      9.2300      4.9190     75.9643
      62   1   1      0.0000     10.6335      4.9220     76.0241
      63   1   1      0.0000      8.5200      6.1488     75.9643
      64   1   1      0.0000     11.2952      6.1714     76.1433
      65   1   1      0.0000     13.4424      4.8320     76.1320
      66   1   1      0.0000     14.8455      4.7119     76.1339
      67   1   1      0.0000     12.7050      6.0289     76.2289
      68   1   1      0.0000     15.5794      5.7921     75.9934
      69   1   1      0.0000     17.6873      4.6915     75.9645
      70   1   1      0.0000     19.0568      4.7164     75.9052
      71   1   1      0.0000     16.9005      5.7388     75.7304
      72   1   1      0.0000     19.7581      5.7089     75.4782
      73   1   1      0.0000     22.0100      4.9190     75.9643
      74   1   1      0.0000     23.4300      4.9190     75.9643
      75   1   1      0.0000     21.1201      5.8340     75.4981
      76   1   1      0.0000     24.1899      6.1045     75.8718
      77   1   1      0.0000     26.2700      4.9190     75.9643
      78   1   1      0.0000     27.6900      4.9190     75.9643
      79   1   1      0.0000     25.5600      6.1488     75.9643
      80   1   1      0.0000     28.4000      6.1488     75.9643
      81   1   1      0.0000     30.5300      4.9190     75.9643
      82   1   1      0.0000     31.9500      4.9190     75.9643
      83   1   1      0.0000     29.8200      6.1488     75.9643
      84   1   1      0.0000     32.6600      6.1488     75.9643
      85   1   1      0.0000      4.9700      7.3785     75.9643
      86   1   1      0.0000      6.3900      7.3785     75.9643
      87   1   1      0.0000      4.2600      8.6083     75.9643
      88   1   1      0.0000      7.1000      8.6083     75.9643
      89   1   1      0.0000      9.1604      7.3850     76.0734
      90   1   1      0.0000     10.5334      7.4239     76.1700
      91   1   1      0.0000      8.4385      8.6016     76.0767
      92   1   1      0.0000     10.9037      8.8009     76.0873
      93   1   1      0.0000     13.5281      7.0865     76.1940
      94   1   1      0.0000     14.8038      6.8063     75.8313
      95   1   1      0.0000     23.8271      7.3149     75.3471
      96   1   1      0.0000     24.6185      8.4186     75.2729
      97   1   1      0.0000     26.3341      7.3217     75.9471
      98   1   1      0.0000     27.6900      7.3785     75.9643
      99   1   1      0.0000     25.8282      8.5452     75.7500
     100   1   1      0.0000     28.4000      8.6083     75.9643
     101   1   1      0.0000     30.5300      7.3785     75.9643
     102   1   1      0.0000     31.9500      7.3785     75.9643
     103   1   1      0.0000     29.8200      8.6083     75.9643
     104   1   1      0.0000     32.6600      8.6083     75.9643
     105   1   1      0.0000      4.9700      9.8380     75.9643
     106   1   1      0.0000      6.3900      9.8380     75.9643
     107   1   1      0.0000      4.2600     11.0678     75.9643
     108   1   1      0.0000      6.9512     11.0893     76.1162
     109   1   1      0.0000      8.9319      9.9027     76.1971
     110   1   1      0.0000     10.2218      9.9930     76.1153
     111   1   1      0.0000      8.2646     11.1167     76.2401
     112   1   1      0.0000     26.5063      9.7413     75.7423
     113   1   1      0.0000     27.8160      9.8223     75.9450
     114   1   1      0.0000     28.4955     11.0275     75.9594
     115   1   1      0.0000     30.5300      9.8380     75.9643
     116   1   1      0.0000     31.9500      9.8380     75.9643
     117   1   1      0.0000     29.8200     11.0678     75.9643
     118   1   1      0.0000     32.6600     11.0678     75.9643
     119   1   1      0.0000      4.9700     12.2976     75.9643
     120   1   1      0.0000      6.2936     12.3116     76.1094
     121   1   1      0.0000      4.2600     13.5273     75.9643
     122   1   1      0.0000      6.9057     13.5566     76.2194
     123   1   1      0.0000      8.8408     12.3794     76.3128
     124   1   1      0.0000     10.1180     12.4567     76.0262
     125   1   1      0.0000      8.2182     13.5959     76.3432
     126   1   1      0.0000     26.6409     12.0949     75.5220
     127   1   1      0.0000     27.8925     12.2346     75.9099
     128   1   1      0.0000     26.1800     13.2535     75.2053
     129   1   1      0.0000     28.4940     13.5001     75.9670
     130   1   1      0.0000     30.5300     12.2976     75.9643
     131   1   1      0.0000     31.9500     12.2976     75.9643
     132   1   1      0.0000     29.8200     13.5273     75.9643
     133   1   1      0.0000     32.6600     13.5273     75.9643
     134   1   1      0.0000      4.9700     14.7571     75.9643
     135   1   1      0.0000      6.3022     14.7870     76.1104
     136   1   1      0.0000      4.2600     15.9868     75.9643
     137   1   1      0.0000      6.9861     16.0105     76.1098
     138   1   1      0.0000      8.8584     14.8282     76.3226
     139   1   1      0.0000      8.3236     16.0591     76.2070
     140   1   1      0.0000     10.7037     16.0191     75.6619
     141   1   1      0.0000     26.6247     14.4926     75.5079
     142   1   1      0.0000     27.8527     14.7249     75.9198
     143   1   1      0.0000     28.4127     16.0146     75.9551
     144   1   1      0.0000     30.5300     14.7571     75.9643
     145   1   1      0.0000     31.9500     14.7571     75.9643
     146   1   1      0.0000     29.8257     15.9974     75.9813
     147   1   1      0.0000     32.6600     15.9868     75.9643
     148   1   1      0.0000      4.9700     17.2166     75.9643
     149   1   1      0.0000      6.3900     17.2166     75.9643
     150   1   1      0.0000      4.2600     18.4463     75.9643
     151   1   1      0.0000      7.1000     18.4463     75.9643
     152   1   1      0.0000      9.0382     17.2787     76.0735
     153   1   1      0.0000     10.3550     17.2956     75.7786
     154   1   1      0.0000      8.4654     18.4975     76.0021
     155   1   1      0.0000     11.1281     18.4129     75.4999
     156   1   1      0.0000     26.3102     17.5529     75.6909
     157   1   1      0.0000     27.6860     17.2625     75.9173
     158   1   1      0.0000     25.6104     18.7357     75.7465
     159   1   1      0.0000     28.4000     18.4463     75.9643
     160   1   1      0.0000     30.5300     17.2166     75.9643
     161   1   1      0.0000     31.9500     17.2166     75.9643
     162   1   1      0.0000     29.8200     18.4463     75.9643
     163   1   1      0.0000     32.6600     18.4463     75.9643
     164   1   1      0.0000      4.9700     19.6761     75.9643
     165   1   1      0.0000      6.3900     19.6761     75.9643
     166   1   1      0.0000      4.2600     20.9059     75.9643
     167   1   1      0.0000      7.1000     20.9059     75.9643
     168   1   1      0.0000      9.2300     19.6761     75.9643
     169   1   1      0.0000     10.6381     19.6917     75.8178
     170   1   1      0.0000      8.5200     20.9059     75.9643
     171   1   1      0.0000     11.3637     20.9214     75.8526
     172   1   1      0.0000     13.7029     20.1330     75.3535
     173   1   1      0.0000     12.7833     21.0260     75.8312
     174   1   1      0.0000     15.7291     21.2965     75.9597
     175   1   1      0.0000     17.1029     21.3324     76.0263
     176   1   1      0.0000     20.0073     21.2958     76.0165
     177   1   1      0.0000     23.5018     20.0235     75.6764
     178   1   1      0.0000     21.3788     21.1961     75.9626
     179   1   1      0.0000     24.2012     21.0988     75.9649
     180   1   1      0.0000     26.3109     19.8260     75.9567
     181   1   1      0.0000     27.6900     19.6761     75.9643
     182   1   1      0.0000     25.5863     20.9999     75.9763
     183   1   1      0.0000     28.4000     20.9059     75.9643
     184   1   1      0.0000     30.5300     19.6761     75.9643
     185   1   1      0.0000     31.9500     19.6761     75.9643
     186   1   1      0.0000     29.8200     20.9059     75.9643
     187   1   1      0.0000     32.6600     20.9059     75.9643
     188   1   1      0.0000      4.9700     22.1356     75.9643
     189   1   1      0.0000      6.3900     22.1356     75.9643
     190   1   1      0.0000      4.2600     23.3654     75.9643
     191   1   1      0.0000      7.1000     23.3654     75.9643
     192   1   1      0.0000      9.2300     22.1356     75.9643
     193   1   1      0.0000     10.6500     22.1356     75.9643
     194   1   1      0.0000      8.5200     23.3654     75.9643
     195   1   1      0.0000     11.3600     23.3654     75.9643
     196   1   1      0.0000     13.4974     22.2174     75.9876
     197   1   1      0.0000     14.9036     22.3288     76.0854
     198   1   1      0.0000     12.7800     23.3654     75.9643
     199   1   1      0.0000     15.6424     23.4777     76.1007
     200   1   1      0.0000     17.8293     22.4219     76.2316
     201   1   1      0.0000     19.2258     22.3975     76.2191
     202   1   1      0.0000     17.0526     23.5306     76.1766
     203   1   1      0.0000     19.9292     23.5270     76.1615
     204   1   1      0.0000     22.0769     22.3086     76.0722
     205   1   1      0.0000     23.4502     22.2379     75.9958
     206   1   1      0.0000     21.3204     23.4606     76.0817
     207   1   1      0.0000     24.1400     23.3654     75.9643
     208   1   1      0.0000     26.2700     22.1356     75.9643
     209   1   1      0.0000     27.6900     22.1356     75.9643
     210   1   1      0.0000     25.5600     23.3654     75.9643
     211   1   1      0.0000     28.4000     23.3654     75.9643
     212   1   1      0.0000     30.5300     22.1356     75.9643
     213   1   1      0.0000     31.9500     22.1356     75.9643
     214   1   1      0.0000     29.8200     23.3654     75.9643
     215   1   1      0.0000     32.6600     23.3654     75.9643
     216   1   1      0.0000      4.9700     24.5951     75.9643
     217   1   1      0.0000      6.3900     24.5951     75.9643
     218   1   1      0.0000      4.2600     25.8249     75.9643
     219   1   1      0.0000      7.1000     25.8249     75.9643
     220   1   1      0.0000      9.2300     24.5951     75.9643
     221   1   1      0.0000     10.6500     24.5951     75.9643
     222   1   1      0.0000      8.5200     25.8249     75.9643
     223   1   1      0.0000     11.3600     25.8249     75.9643
     224   1   1      0.0000     13.4900     24.5951     75.9643
     225   1   1      0.0000     14.9100     24.5951     75.9643
     226   1   1      0.0000     12.7800     25.8249     75.9643
     227   1   1      0.0000     15.6200     25.8249     75.9643
     228   1   1      0.0000     17.7722     24.6811     76.0775
     229   1   1      0.0000     19.1761     24.6737     76.0747
     230   1   1      0.0000     17.0400     25.8249     75.9643
     231   1   1      0.0000     19.8800     25.8249     75.9643
     232   1   1      0.0000     22.0100     24.5951     75.9643
     233   1   1      0.0000     23.4300     24.5951     75.9643
     234   1   1      0.0000     21.3000     25.8249     75.9643
     235   1   1      0.0000     24.1400     25.8249     75.9643
     236   1   1      0.0000     26.2700     24.5951     75.9643
     237   1   1      0.0000     27.6900     24.5951     75.9643
     238   1   1      0.0000     25.5600     25.8249     75.9643
     239   1   1      0.0000     28.4000     25.8249     75.9643
     240   1   1      0.0000     30.5300     24.5951     75.9643
     241   1   1      0.0000     31.9500     24.5951     75.9643
     242   1   1      0.0000     29.8200     25.8249     75.9643
     243   1   1      0.0000     32.6600     25.8249     75.9643
     244   1   1      0.0000      4.9700     27.0546     75.9643
     245   1   1      0.0000      6.3900     27.0546     75.9643
     246   1   1      0.0000      4.2000     28.3883     75.9643
     247   1   1      0.0000      7.1000     28.2844     75.9643
     248   1   1      0.0000      9.2300     27.0546     75.9643
     249   1   1      0.0000     10.6500     27.0546     75.9643
     250   1   1      0.0000      8.5200     28.2844     75.9643
     251   1   1      0.0000     11.3600     28.2844     75.9643
     252   1   1      0.0000     13.4900     27.0546     75.9643
     253   1   1      0.0000     14.9100     27.0546     75.9643
     254   1   1      0.0000     12.7800     28.2844     75.9643
     255   1   1      0.0000     15.6200     28.2844     75.9643
     256   1   1      0.0000     17.7500     27.0546     75.9643
     257   1   1      0.0000     19.1700     27.0546     75.9643
     258   1   1      0.0000     17.0400     28.2844     75.9643
     259   1   1      0.0000     19.8800     28.2844     75.9643
     260   1   1      0.0000     22.0100     27.0546     75.9643
     261   1   1      0.0000     23.4300     27.0546     75.9643
     262   1   1      0.0000     21.3000     28.2844     75.9643
     263   1   1      0.0000     24.1400     28.2844     75.9643
     264   1   1      0.0000     26.2700     27.0546     75.9643
     265   1   1      0.0000     27.6900     27.0546     75.9643
     266   1   1      0.0000     25.5600     28.2844     75.9643
     267   1   1      0.0000     28.4000     28.2844     75.9643
     268   1   1      0.0000     30.5300     27.0546     75.9643
     269   1   1      0.0000     31.9500     27.0546     75.9643
     270   1   1      0.0000     29.8200     28.2844     75.9643
     271   1   1      0.0000     32.7200     28.3883     75.9643
     272   1   1      0.0000      4.9700      0.0000     60.0000
     273   1   1      0.0000      6.3900      0.0000     60.0000
     274   1   1      0.0000      4.2600      1.2298     60.0000
     275   1   1      0.0000      7.1000      1.2298     60.0000
     276   1   1      0.0000      9.2300      0.0000     60.0000
     277   1   1      0.0000     10.6500      0.0000     60.0000
     278   1   1      0.0000      8.5200      1.2298     60.0000
     279   1   1      0.0000     11.3600      1.2298     60.0000
     280   1   1      0.0000     13.4900      0.0000     60.0000
     281   1   1      0.0000     14.9100      0.0000     60.0000
     282   1   1      0.0000     12.7800      1.2298     60.0000
     283   1   1      0.0000     15.6200      1.2298     60.0000
     284   1   1      0.0000     17.7500      0.0000     60.0000
     285   1   1      0.0000     19.1700      0.0000     60.0000
     286   1   1      0.0000     17.0400      1.2298     60.0000
     287   1   1      0.0000     19.8800      1.2298     60.0000
     288   1   1      0.0000     22.0100      0.0000     60.0000
     289   1   1      0.0000     23.4300      0.0000     60.0000
     290   1   1      0.0000     21.3000      1.2298     60.0000
     291   1   1      0.0000     24.1400      1.2298     60.0000
     292   1   1      0.0000     26.2700      0.0000     60.0000
     293   1   1      0.0000     27.6900      0.0000     60.0000
     294   1   1      0.0000     25.5600      1.2298     60.0000
     295   1   1      0.0000     28.4000      1.2298     60.0000
     296   1   1      0.0000     30.5300      0.0000     60.0000
     297   1   1      0.0000     31.9500      0.0000     60.0000
     298   1   1      0.0000     29.8200      1.2298     60.0000
     299   1   1      0.0000     32.6600      1.2298     60.0000
     300   1   1      0.0000      4.9700      2.4595     60.0000
     301   1   1      0.0000      6.3900      2.4595     60.0000
     302   1   1      0.0000      4.2600      3.6893     60.0000
     303   1   1      0.0000      7.1000      3.6893     60.0000
     304   1   1      0.0000      9.2300      2.4595     60.0000
     305   1   1      0.0000     10.6500      2.4595     60.0000
     306   1   1      0.0000      8.5200      3.6893     60.0000
     307   1   1      0.0000     11.3600      3.6893     60.0000
     308   1   1      0.0000     13.4900      2.4595     60.0000
     309   1   1      0.0000     14.9100      2.4595     60.0000
     310   1   1      0.0000     12.7800      3.6893     60.0000
     311   1   1      0.0000     15.6103      3.5753     60.2101
     312   1   1      0.0000     17.7581      2.4061     60.1212
     313   1   1      0.0000     19.1685      2.4304     60.1295
     314   1   1      0.0000     16.9858      3.5339     60.3281
     315   1   1      0.0000     19.8747      3.6300     60.3411
     316   1   1      0.0000     22.0100      2.4595     60.0000
     317   1   1      0.0000     23.4300      2.4595     60.0000
     318   1   1      0.0000     21.2977      3.6643     60.1888
     319   1   1      0.0000     24.1400      3.6893     60.0000
     320   1   1      0.0000     26.2700      2.4595     60.0000
     321   1   1      0.0000     27.6900      2.4595     60.0000
     322   1   1      0.0000     25.5600      3.6893     60.0000
     323   1   1      0.0000     28.4000      3.6893     60.0000
     324   1   1      0.0000     30.5300      2.4595     60.0000
     325   1   1      0.0000     31.9500      2.4595     60.0000
     326   1   1      0.0000     29.8200      3.6893     60.0000
     327   1   1      0.0000     32.6600      3.6893     60.0000
     328   1   1      0.0000      4.9700      4.9190     60.0000
     329   1   1      0.0000      6.3900      4.9190     60.0000
     330   1   1      0.0000      4.2600      6.1488     60.0000
     331   1   1      0.0000      7.1000      6.1488     60.0000
     332   1   1      0.0000      9.2300      4.9190     60.0000
     333   1   1      0.0000     10.6500      4.9190     60.0000
     334   1   1      0.0000      8.5200      6.1488     60.0000
     335   1   1      0.0000     11.3457      6.0279     60.0787
     336   1   1      0.0000     13.4847      4.7760     60.1887
     337   1   1      0.0000     14.8524      4.6862     60.4129
     338   1   1      0.0000     12.7281      5.8787     60.2753
     339   1   1      0.0000     15.4517      5.6442     61.1351
     340   1   1      0.0000     17.6365      4.5897     60.8636
     341   1   1      0.0000     19.0286      4.6288     60.8773
     342   1   1      0.0000     22.1059      4.8406     60.2279
     343   1   1      0.0000     23.4951      4.8748     60.0156
     344   1   1      0.0000     21.8234      6.0658     60.7687
     345   1   1      0.0000     24.3029      6.0301     59.9175
     346   1   1      0.0000     26.2700      4.9190     60.0000
     347   1   1      0.0000     27.6900      4.9190     60.0000
     348   1   1      0.0000     25.6681      6.1040     59.8747
     349   1   1      0.0000     28.4000      6.1488     60.0000
     350   1   1      0.0000     30.5300      4.9190     60.0000
     351   1   1      0.0000     31.9500      4.9190     60.0000
     352   1   1      0.0000     29.8200      6.1488     60.0000
     353   1   1      0.0000     32.6600      6.1488     60.0000
     354   1   1      0.0000      4.9700      7.3785     60.0000
     355   1   1      0.0000      6.3900      7.3785     60.0000
     356   1   1      0.0000      4.2600      8.6083     60.0000
     357   1   1      0.0000      7.1000      8.6083     60.0000
     358   1   1      0.0000      9.2019      7.3323     60.0036
     359   1   1      0.0000     10.5862      7.1745     60.0934
     360   1   1      0.0000      8.5067      8.5746     60.0020
     361   1   1      0.0000     11.2617      8.2417     60.3928
     362   1   1      0.0000     13.3427      6.8643     60.8543
     363   1   1      0.0000     23.8411      7.2561     60.0753
     364   1   1      0.0000     24.5791      8.4224     59.9752
     365   1   1      0.0000     26.4295      7.2914     59.7852
     366   1   1      0.0000     27.7824      7.3494     59.8785
     367   1   1      0.0000     25.8789      8.5185     59.7221
     368   1   1      0.0000     28.4851      8.5656     59.8598
     369   1   1      0.0000     30.5300      7.3785     60.0000
     370   1   1      0.0000     31.9500      7.3785     60.0000
     371   1   1      0.0000     29.8200      8.6083     60.0000
     372   1   1      0.0000     32.6600      8.6083     60.0000
     373   1   1      0.0000      4.9700      9.8380     60.0000
     374   1   1      0.0000      6.3900      9.8380     60.0000
     375   1   1      0.0000      4.2600     11.0678     60.0000
     376   1   1      0.0000      7.1000     11.0678     60.0000
     377   1   1      0.0000      9.2234      9.7769     60.0594
     378   1   1      0.0000     10.5846      9.4443     60.3718
     379   1   1      0.0000      8.5200     11.0678     60.0000
     380   1   1      0.0000     26.5767      9.7347     59.6755
     381   1   1      0.0000     27.9088      9.7956     59.7122
     382   1   1      0.0000     26.0478     10.9371     59.8555
     383   1   1      0.0000     28.5883     11.0279     59.7221
     384   1   1      0.0000     30.5618      9.8188     59.9639
     385   1   1      0.0000     31.9500      9.8380     60.0000
     386   1   1      0.0000     29.9362     11.0518     59.8567
     387   1   1      0.0000     32.6600     11.0678     60.0000
     388   1   1      0.0000      4.9700     12.2976     60.0000
     389   1   1      0.0000      6.3900     12.2976     60.0000
     390   1   1      0.0000      4.2600     13.5273     60.0000
     391   1   1      0.0000      7.1000     13.5273     60.0000
     392   1   1      0.0000      9.1381     12.3081     60.0336
     393   1   1      0.0000     10.3898     12.5088     60.4140
     394   1   1      0.0000      8.5200     13.5273     60.0000
     395   1   1      0.0000     10.8906     13.7406     60.6543
     396   1   1      0.0000     26.6849     12.1327     59.8406
     397   1   1      0.0000     27.9925     12.2352     59.6867
     398   1   1      0.0000     28.6467     13.4482     59.7429
     399   1   1      0.0000     30.5968     12.2874     59.8912
     400   1   1      0.0000     31.9500     12.2976     60.0000
     401   1   1      0.0000     29.9467     13.5203     59.8321
     402   1   1      0.0000     32.6600     13.5273     60.0000
     403   1   1      0.0000      4.9700     14.7571     60.0000
     404   1   1      0.0000      6.3900     14.7571     60.0000
     405   1   1      0.0000      4.2600     15.9868     60.0000
     406   1   1      0.0000      7.1000     15.9868     60.0000
     407   1   1      0.0000      9.2300     14.7571     60.0000
     408   1   1      0.0000     10.4850     14.8969     60.2872
     409   1   1      0.0000      8.5200     15.9868     60.0000
     410   1   1      0.0000     26.7980     14.4580     60.1249
     411   1   1      0.0000     28.0455     14.6398     59.7913
     412   1   1      0.0000     28.6127     15.9163     59.8069
     413   1   1      0.0000     30.5815     14.7617     59.9135
     414   1   1      0.0000     31.9500     14.7571     60.0000
     415   1   1      0.0000     29.9342     15.9761     59.8938
     416   1   1      0.0000     32.6600     15.9868     60.0000
     417   1   1      0.0000      4.9700     17.2166     60.0000
     418   1   1      0.0000      6.3900     17.2166     60.0000
     419   1   1      0.0000      4.2600     18.4463     60.0000
     420   1   1      0.0000      7.1000     18.4463     60.0000
     421   1   1      0.0000      9.2300     17.2166     60.0000
     422   1   1      0.0000     10.6027     17.2735     60.0453
     423   1   1      0.0000      8.5200     18.4463     60.0000
     424   1   1      0.0000     11.3600     18.4463     60.0000
     425   1   1      0.0000     12.5280     18.5681     60.4604
     426   1   1      0.0000     24.1664     19.2054     59.8660
     427   1   1      0.0000     26.6113     16.7941     59.9542
     428   1   1      0.0000     27.9048     17.0978     59.7849
     429   1   1      0.0000     25.4649     18.9310     59.6701
     430   1   1      0.0000     28.4313     18.4334     59.7910
     431   1   1      0.0000     30.5300     17.2166     60.0000
     432   1   1      0.0000     31.9500     17.2166     60.0000
     433   1   1      0.0000     29.8307     18.4483     59.9380
     434   1   1      0.0000     32.6600     18.4463     60.0000
     435   1   1      0.0000      4.9700     19.6761     60.0000
     436   1   1      0.0000      6.3900     19.6761     60.0000
     437   1   1      0.0000      4.2600     20.9059     60.0000
     438   1   1      0.0000      7.1000     20.9059     60.0000
     439   1   1      0.0000      9.2300     19.6761     60.0000
     440   1   1      0.0000     10.6500     19.6761     60.0000
     441   1   1      0.0000      8.5200     20.9059     60.0000
     442   1   1      0.0000     11.3600     20.9059     60.0000
     443   1   1      0.0000     13.2361     19.6914     60.4308
     444   1   1      0.0000     12.7800     20.9059     60.0000
     445   1   1      0.0000     15.8100     21.1875     60.4018
     446   1   1      0.0000     17.1624     21.3172     60.4207
     447   1   1      0.0000     20.0327     21.2682     60.2807
     448   1   1      0.0000     22.1285     20.2585     60.2370
     449   1   1      0.0000     23.4386     20.2229     59.8207
     450   1   1      0.0000     21.3607     21.2696     60.0728
     451   1   1      0.0000     24.2137     21.2520     59.6820
     452   1   1      0.0000     26.3418     19.9093     59.6017
     453   1   1      0.0000     27.7316     19.7064     59.7367
     454   1   1      0.0000     25.6291     21.1100     59.6644
     455   1   1      0.0000     28.4265     20.9221     59.8807
     456   1   1      0.0000     30.5300     19.6761     60.0000
     457   1   1      0.0000     31.9500     19.6761     60.0000