
    1482 atoms
    2223 bonds
    4446 angles
    8892 dihedrals

       2 atom types
       2 bond types
       2 angle types
       2 dihedral types

  0.0000 29.8200 xlo xhi
  0.0000 29.4720 ylo yhi
-20.0000 20.0000 zlo zhi

 Masses


       1 12.01070
       2  1.00794

 Atoms

       1   1   1      0.0000      4.9700      0.0000     75.9643
       2   1   1      0.0000      6.3900      0.0000     75.9643
       3   1   1      0.0000      4.2600      1.2298     75.9643
       4   1   1      0.0000      7.1000      1.2298     75.9643
       5   1   1      0.0000      9.2300      0.0000     75.9643
       6   1   1      0.0000     10.6500      0.0000     75.9643
       7   1   1      0.0000      8.5200      1.2298     75.9643
       8   1   1      0.0000     11.3600      1.2298     75.9643
       9   1   1      0.0000     13.4900      0.0000     75.9643
      10   1   1      0.0000     14.9100      0.0000     75.9643
      11   1   1      0.0000     12.7800      1.2298     75.9643
      12   1   1      0.0000     15.6502      1.1840     75.7586
      13   1   1      0.0000     17.7500      0.0000     75.9643
      14   1   1      0.0000     19.1700      0.0000     75.9643
      15   1   1      0.0000     17.0791      1.2361     75.6866
      16   1   1      0.0000     19.8800      1.2298     75.9643
      17   1   1      0.0000     22.0100      0.0000     75.9643
      18   1   1      0.0000     23.4300      0.0000     75.9643
      19   1   1      0.0000     21.3000      1.2298     75.9643
      20   1   1      0.0000     24.1400      1.2298     75.9643
      21   1   1      0.0000     26.2700      0.0000     75.9643
      22   1   1      0.0000     27.6900      0.0000     75.9643
      23   1   1      0.0000     25.5600      1.2298     75.9643
      24   1   1      0.0000     28.4000      1.2298     75.9643
      25   1   1      0.0000     30.5300      0.0000     75.9643
      26   1   1      0.0000     31.9500      0.0000     75.9643
      27   1   1      0.0000     29.8200      1.2298     75.9643
      28   1   1      0.0000     32.6600      1.2298     75.9643
      29   1   1      0.0000      4.9700      2.4595     75.9643
      30   1   1      0.0000      6.3900      2.4595     75.9643
      31   1   1      0.0000      4.2600      3.6893     75.9643
      32   1   1      0.0000      7.1000      3.6893     75.9643
      33   1   1      0.0000      9.2300      2.4595     75.9643
      34   1   1      0.0000     10.6500      2.4595     75.9643
      35   1   1      0.0000      8.5200      3.6893     75.9643
      36   1   1      0.0000     11.3600      3.6893     75.9643
      37   1   1      0.0000     13.4472      2.3199     75.8651
      38   1   1      0.0000     14.8098      2.2828     75.6730
      39   1   1      0.0000     12.7485      3.4778     75.7817
      40   1   1      0.0000     14.9847      3.4947     75.1688
      41   1   1      0.0000     17.9024      2.3731     75.3057
      42   1   1      0.0000     19.2568      2.3778     75.5771
      43   1   1      0.0000     20.1755      3.4019     75.4180
      44   1   1      0.0000     22.0100      2.4595     75.9643
      45   1   1      0.0000     23.4300      2.4595     75.9643
      46   1   1      0.0000     21.4246      3.5470     75.8023
      47   1   1      0.0000     24.1929      3.6081     75.9858
      48   1   1      0.0000     26.2700      2.4595     75.9643
      49   1   1      0.0000     27.6900      2.4595     75.9643
      50   1   1      0.0000     25.5600      3.6893     75.9643
      51   1   1      0.0000     28.4000      3.6893     75.9643
      52   1   1      0.0000     30.5300      2.4595     75.9643
      53   1   1      0.0000     31.9500      2.4595     75.9643
      54   1   1      0.0000     29.8200      3.6893     75.9643
      55   1   1      0.0000     32.6600      3.6893     75.9643
      56   1   1      0.0000      4.9700      4.9190     75.9643
      57   1   1      0.0000      6.3900      4.9190     75.9643
      58   1   1      0.0000      4.2600      6.1488     75.9643
      59   1   1      0.0000      7.1000      6.1488     75.9643
      60   1   1      0.0000      9.2300      4.9190     75.9643
      61   1   1      0.0000     10.6362      4.8695     75.8488
      62   1   1      0.0000      8.5200      6.1488     75.9643
      63   1   1      0.0000     11.1414      6.0236     75.2838
      64   1   1      0.0000     13.7593      4.1465     75.2079
      65   1   1      0.0000     22.2507      4.5440     75.5379
      66   1   1      0.0000     23.5420      4.7407     75.7998
      67   1   1      0.0000     26.3396      4.8093     75.9871
      68   1   1      0.0000     27.6900      4.9190     75.9643
      69   1   1      0.0000     25.6904      5.8849     75.8106
      70   1   1      0.0000     28.4363      6.0908     75.9165
      71   1   1      0.0000     30.5300      4.9190     75.9643
      72   1   1      0.0000     31.9500      4.9190     75.9643
      73   1   1      0.0000     29.8200      6.1488     75.9643
      74   1   1      0.0000     32.6600      6.1488     75.9643
      75   1   1      0.0000      4.9700      7.3785     75.9643
      76   1   1      0.0000      6.3900      7.3785     75.9643
      77   1   1      0.0000      4.2600      8.6083     75.9643
      78   1   1      0.0000      7.0245      8.6076     75.9114
      79   1   1      0.0000      9.1079      7.3283     75.7477
      80   1   1      0.0000     10.3409      7.1505     75.2385
      81   1   1      0.0000      8.3669      8.5210     75.7102
      82   1   1      0.0000     26.4120      6.9212     75.4159
      83   1   1      0.0000     27.7486      7.2021     75.5943
      84   1   1      0.0000     28.3964      8.3835     75.3855
      85   1   1      0.0000     30.5300      7.3785     75.9643
      86   1   1      0.0000     31.9500      7.3785     75.9643
      87   1   1      0.0000     29.7900      8.5871     75.7668
      88   1   1      0.0000     32.6600      8.6083     75.9643
      89   1   1      0.0000      4.9700      9.8380     75.9643
      90   1   1      0.0000      6.3528      9.8484     75.8954
      91   1   1      0.0000      4.2600     11.0678     75.9643
      92   1   1      0.0000      6.9980     11.0947     75.7122
      93   1   1      0.0000      8.8316      9.6829     75.1983
      94   1   1      0.0000      8.2564     10.9437     75.1980
      95   1   1      0.0000     30.5362      9.8109     75.8309
      96   1   1      0.0000     31.9500      9.8380     75.9643
      97   1   1      0.0000     29.9285     11.0725     75.8232
      98   1   1      0.0000     32.6600     11.0678     75.9643
      99   1   1      0.0000      4.9700     12.2976     75.9643
     100   1   1      0.0000      6.3371     12.3248     75.7903
     101   1   1      0.0000      4.2600     13.5273     75.9643
     102   1   1      0.0000      6.8674     13.6195     75.6579
     103   1   1      0.0000      7.9683     14.1539     75.1397
     104   1   1      0.0000     30.6135     12.2988     76.0051
     105   1   1      0.0000     31.9500     12.2976     75.9643
     106   1   1      0.0000     30.0555     13.5808     76.0735
     107   1   1      0.0000     32.6600     13.5273     75.9643
     108   1   1      0.0000      4.9700     14.7571     75.9643
     109   1   1      0.0000      6.2357     14.7970     75.8217
     110   1   1      0.0000      4.2600     15.9868     75.9643
     111   1   1      0.0000      6.8950     15.9872     75.6754
     112   1   1      0.0000      8.0245     15.5402     75.1464
     113   1   1      0.0000     28.6282     16.1534     75.7822
     114   1   1      0.0000     30.6304     14.8079     76.0662
     115   1   1      0.0000     31.9500     14.7571     75.9643
     116   1   1      0.0000     29.9400     16.0357     76.0184
     117   1   1      0.0000     32.6600     15.9868     75.9643
     118   1   1      0.0000      4.9700     17.2166     75.9643
     119   1   1      0.0000      6.3703     17.2584     75.7984
     120   1   1      0.0000      4.2600     18.4463     75.9643
     121   1   1      0.0000      7.1278     18.4680     75.7455
     122   1   1      0.0000      8.5250     18.6356     75.3535
     123   1   1      0.0000     27.9899     17.3409     75.5158
     124   1   1      0.0000     28.5006     18.5270     75.8318
     125   1   1      0.0000     30.5300     17.2166     75.9643
     126   1   1      0.0000     31.9500     17.2166     75.9643
     127   1   1      0.0000     29.8200     18.4463     75.9643
     128   1   1      0.0000     32.6600     18.4463     75.9643
     129   1   1      0.0000      4.9700     19.6761     75.9643
     130   1   1      0.0000      6.3900     19.6761     75.9643
     131   1   1      0.0000      4.2600     20.9059     75.9643
     132   1   1      0.0000      7.1000     20.9059     75.9643
     133   1   1      0.0000      9.1767     19.8388     75.5751
     134   1   1      0.0000     10.5063     20.1753     75.3930
     135   1   1      0.0000      8.4877     20.9551     75.9057
     136   1   1      0.0000     11.2135     21.2533     75.7679
     137   1   1      0.0000     12.5136     21.4237     75.5129
     138   1   1      0.0000     26.5842     19.8587     75.3446
     139   1   1      0.0000     27.8226     19.7152     75.8094
     140   1   1      0.0000     25.8045     20.9696     75.3892
     141   1   1      0.0000     28.4000     20.9059     75.9643
     142   1   1      0.0000     30.5300     19.6761     75.9643
     143   1   1      0.0000     31.9500     19.6761     75.9643
     144   1   1      0.0000     29.8200     20.9059     75.9643
     145   1   1      0.0000     32.6600     20.9059     75.9643
     146   1   1      0.0000      4.9700     22.1356     75.9643
     147   1   1      0.0000      6.3900     22.1356     75.9643
     148   1   1      0.0000      4.2600     23.3654     75.9643
     149   1   1      0.0000      7.1000     23.3654     75.9643
     150   1   1      0.0000      9.2300     22.1356     75.9643
     151   1   1      0.0000     10.5692     22.3129     76.0093
     152   1   1      0.0000      8.5200     23.3654     75.9643
     153   1   1      0.0000     11.3182     23.4627     76.0303
     154   1   1      0.0000     13.3641     22.4183     75.7754
     155   1   1      0.0000     12.6995     23.5346     76.0261
     156   1   1      0.0000     15.4929     23.5813     75.9244
     157   1   1      0.0000     16.8581     23.6691     75.9155
     158   1   1      0.0000     19.7451     23.6597     75.8976
     159   1   1      0.0000     23.1464     22.5208     75.3365
     160   1   1      0.0000     21.1224     23.6074     75.8466
     161   1   1      0.0000     24.1148     23.3986     75.8573
     162   1   1      0.0000     26.2700     22.1356     75.9643
     163   1   1      0.0000     27.6900     22.1356     75.9643
     164   1   1      0.0000     25.5404     23.3543     75.9398
     165   1   1      0.0000     28.4000     23.3654     75.9643
     166   1   1      0.0000     30.5300     22.1356     75.9643
     167   1   1      0.0000     31.9500     22.1356     75.9643
     168   1   1      0.0000     29.8200     23.3654     75.9643
     169   1   1      0.0000     32.6600     23.3654     75.9643
     170   1   1      0.0000      4.9700     24.5951     75.9643
     171   1   1      0.0000      6.3900     24.5951     75.9643
     172   1   1      0.0000      4.2600     25.8249     75.9643
     173   1   1      0.0000      7.1000     25.8249     75.9643
     174   1   1      0.0000      9.2300     24.5951     75.9643
     175   1   1      0.0000     10.6500     24.5951     75.9643
     176   1   1      0.0000      8.5200     25.8249     75.9643
     177   1   1      0.0000     11.3600     25.8249     75.9643
     178   1   1      0.0000     13.4509     24.6793     76.0162
     179   1   1      0.0000     14.8285     24.7081     76.0186
     180   1   1      0.0000     12.7800     25.8249     75.9643
     181   1   1      0.0000     15.6200     25.8249     75.9643
     182   1   1      0.0000     17.6770     24.7650     76.0564
     183   1   1      0.0000     19.0734     24.7838     76.0587
     184   1   1      0.0000     17.0014     25.9017     76.0093
     185   1   1      0.0000     19.8808     25.8875     76.0138
     186   1   1      0.0000     22.0100     24.5951     75.9643
     187   1   1      0.0000     23.4300     24.5951     75.9643
     188   1   1      0.0000     21.3000     25.8249     75.9643
     189   1   1      0.0000     24.1400     25.8249     75.9643
     190   1   1      0.0000     26.2700     24.5951     75.9643
     191   1   1      0.0000     27.6900     24.5951     75.9643
     192   1   1      0.0000     25.5600     25.8249     75.9643
     193   1   1      0.0000     28.4000     25.8249     75.9643
     194   1   1      0.0000     30.5300     24.5951     75.9643
     195   1   1      0.0000     31.9500     24.5951     75.9643
     196   1   1      0.0000     29.8200     25.8249     75.9643
     197   1   1      0.0000     32.6600     25.8249     75.9643
     198   1   1      0.0000      4.9700     27.0546     75.9643
     199   1   1      0.0000      6.3900     27.0546     75.9643
     200   1   1      0.0000      4.2000     28.3883     75.9643
     201   1   1      0.0000      7.1000     28.2844     75.9643
     202   1   1      0.0000      9.2300     27.0546     75.9643
     203   1   1      0.0000     10.6500     27.0546     75.9643
     204   1   1      0.0000      8.5200     28.2844     75.9643
     205   1   1      0.0000     11.3600     28.2844     75.9643
     206   1   1      0.0000     13.4900     27.0546     75.9643
     207   1   1      0.0000     14.9100     27.0546     75.9643
     208   1   1      0.0000     12.7800     28.2844     75.9643
     209   1   1      0.0000     15.6200     28.2844     75.9643
     210   1   1      0.0000     17.7500     27.0546     75.9643
     211   1   1      0.0000     19.1700     27.0546     75.9643
     212   1   1      0.0000     17.0400     28.2844     75.9643
     213   1   1      0.0000     19.8800     28.2844     75.9643
     214   1   1      0.0000     22.0100     27.0546     75.9643
     215   1   1      0.0000     23.4300     27.0546     75.9643
     216   1   1      0.0000     21.3000     28.2844     75.9643
     217   1   1      0.0000     24.1400     28.2844     75.9643
     218   1   1      0.0000     26.2700     27.0546     75.9643
     219   1   1      0.0000     27.6900     27.0546     75.9643
     220   1   1      0.0000     25.5600     28.2844     75.9643
     221   1   1      0.0000     28.4000     28.2844     75.9643
     222   1   1      0.0000     30.5300     27.0546     75.9643
     223   1   1      0.0000     31.9500     27.0546     75.9643
     224   1   1      0.0000     29.8200     28.2844     75.9643
     225   1   1      0.0000     32.7200     28.3883     75.9643
     226   1   1      0.0000      4.9700      0.0000     60.0000
     227   1   1      0.0000      6.3900      0.0000     60.0000
     228   1   1      0.0000      4.2600      1.2298     60.0000
     229   1   1      0.0000      7.1000      1.2298     60.0000
     230   1   1      0.0000      9.2300      0.0000     60.0000
     231   1   1      0.0000     10.6500      0.0000     60.0000
     232   1   1      0.0000      8.5200      1.2298     60.0000
     233   1   1      0.0000     11.3600      1.2298     60.0000
     234   1   1      0.0000     13.4900      0.0000     60.0000
     235   1   1      0.0000     14.9100      0.0000     60.0000
     236   1   1      0.0000     12.7800      1.2298     60.0000
     237   1   1      0.0000     15.6200      1.2298     60.0000
     238   1   1      0.0000     17.7500      0.0000     60.0000
     239   1   1      0.0000     19.1700      0.0000     60.0000
     240   1   1      0.0000     17.0400      1.2298     60.0000
     241   1   1      0.0000     19.8800      1.2298     60.0000
     242   1   1      0.0000     22.0100      0.0000     60.0000
     243   1   1      0.0000     23.4300      0.0000     60.0000
     244   1   1      0.0000     21.3000      1.2298     60.0000
     245   1   1      0.0000     24.1400      1.2298     60.0000
     246   1   1      0.0000     26.2700      0.0000     60.0000
     247   1   1      0.0000     27.6900      0.0000     60.0000
     248   1   1      0.0000     25.5600      1.2298     60.0000
     249   1   1      0.0000     28.4000      1.2298     60.0000
     250   1   1      0.0000     30.5300      0.0000     60.0000
     251   1   1      0.0000     31.9500      0.0000     60.0000
     252   1   1      0.0000     29.8200      1.2298     60.0000
     253   1   1      0.0000     32.6600      1.2298     60.0000
     254   1   1      0.0000      4.9700      2.4595     60.0000
     255   1   1      0.0000      6.3900      2.4595     60.0000
     256   1   1      0.0000      4.2600      3.6893     60.0000
     257   1   1      0.0000      7.1000      3.6893     60.0000
     258   1   1      0.0000      9.2300      2.4595     60.0000
     259   1   1      0.0000     10.6500      2.4595     60.0000
     260   1   1      0.0000      8.5200      3.6893     60.0000
     261   1   1      0.0000     11.3600      3.6893     60.0000
     262   1   1      0.0000     13.5063      2.4405     60.1345
     263   1   1      0.0000     14.9326      2.4127     60.2105
     264   1   1      0.0000     12.7578      3.6308     60.1732
     265   1   1      0.0000     15.8455      3.3490     60.7358
     266   1   1      0.0000     17.8683      2.3042     60.2379
     267   1   1      0.0000     19.2446      2.3702     60.2193
     268   1   1      0.0000     17.2221      3.3040     60.7598
     269   1   1      0.0000     20.0766      3.4309     60.5900
     270   1   1      0.0000     22.0494      2.3900     60.0453
     271   1   1      0.0000     23.4300      2.4595     60.0000
     272   1   1      0.0000     21.4143      3.5156     60.3726
     273   1   1      0.0000     24.2041      3.5732     60.0053
     274   1   1      0.0000     26.2700      2.4595     60.0000
     275   1   1      0.0000     27.6900      2.4595     60.0000
     276   1   1      0.0000     25.5600      3.6893     60.0000
     277   1   1      0.0000     28.4000      3.6893     60.0000
     278   1   1      0.0000     30.5300      2.4595     60.0000
     279   1   1      0.0000     31.9500      2.4595     60.0000
     280   1   1      0.0000     29.8200      3.6893     60.0000
     281   1   1      0.0000     32.6600      3.6893     60.0000
     282   1   1      0.0000      4.9700      4.9190     60.0000
     283   1   1      0.0000      6.3900      4.9190     60.0000
     284   1   1      0.0000      4.2600      6.1488     60.0000
     285   1   1      0.0000      7.1000      6.1488     60.0000
     286   1   1      0.0000      9.2300      4.9190     60.0000
     287   1   1      0.0000     10.6500      4.9190     60.0000
     288   1   1      0.0000      8.5200      6.1488     60.0000
     289   1   1      0.0000     11.1712      6.1017     60.1735
     290   1   1      0.0000     13.1568      4.8330     60.7118
     291   1   1      0.0000     23.5805      4.6502     60.2761
     292   1   1      0.0000     26.3104      4.8453     60.0330
     293   1   1      0.0000     27.6900      4.9190     60.0000
     294   1   1      0.0000     25.6511      5.9561     60.3328
     295   1   1      0.0000     28.4000      6.1488     60.0000
     296   1   1      0.0000     30.5300      4.9190     60.0000
     297   1   1      0.0000     31.9500      4.9190     60.0000
     298   1   1      0.0000     29.8200      6.1488     60.0000
     299   1   1      0.0000     32.6600      6.1488     60.0000
     300   1   1      0.0000      4.9700      7.3785     60.0000
     301   1   1      0.0000      6.3900      7.3785     60.0000
     302   1   1      0.0000      4.2600      8.6083     60.0000
     303   1   1      0.0000      7.1000      8.6083     60.0000
     304   1   1      0.0000      9.1233      7.3411     59.9731
     305   1   1      0.0000     10.4443      7.2511     60.1496
     306   1   1      0.0000      8.4241      8.5325     59.9721
     307   1   1      0.0000     26.4070      7.0622     60.5312
     308   1   1      0.0000     27.7428      7.2620     60.1857
     309   1   1      0.0000     28.5121      8.4010     60.2288
     310   1   1      0.0000     30.5300      7.3785     60.0000
     311   1   1      0.0000     31.9500      7.3785     60.0000
     312   1   1      0.0000     29.8700      8.5624     60.0504
     313   1   1      0.0000     32.6600      8.6083     60.0000
     314   1   1      0.0000      4.9700      9.8380     60.0000
     315   1   1      0.0000      6.3900      9.8380     60.0000
     316   1   1      0.0000      4.2600     11.0678     60.0000
     317   1   1      0.0000      6.9820     11.0641     60.0046
     318   1   1      0.0000      8.9690      9.7320     60.1379
     319   1   1      0.0000      8.2907     10.9278     60.1587
     320   1   1      0.0000     27.9630      9.4641     60.7185
     321   1   1      0.0000     28.6038     10.6764     60.7000
     322   1   1      0.0000     30.5598      9.7953     60.0616
     323   1   1      0.0000     31.9500      9.8380     60.0000
     324   1   1      0.0000     29.8776     10.9942     60.2164
     325   1   1      0.0000     32.6600     11.0678     60.0000
     326   1   1      0.0000      4.9700     12.2976     60.0000
     327   1   1      0.0000      6.3384     12.3080     60.0368
     328   1   1      0.0000      4.2600     13.5273     60.0000
     329   1   1      0.0000      7.0190     13.5312     60.2045
     330   1   1      0.0000      8.2599     13.2939     60.6730
     331   1   1      0.0000     28.6820     13.7686     60.6323
     332   1   1      0.0000     30.5522     12.2551     60.1325
     333   1   1      0.0000     31.9500     12.2976     60.0000
     334   1   1      0.0000     29.9288     13.5117     60.1590
     335   1   1      0.0000     32.6600     13.5273     60.0000
     336   1   1      0.0000      4.9700     14.7571     60.0000
     337   1   1      0.0000      6.4319     14.7907     60.1781
     338   1   1      0.0000      4.2600     15.9868     60.0000
     339   1   1      0.0000      7.1276     16.0419     60.2373
     340   1   1      0.0000      8.4061     16.4050     60.7171
     341   1   1      0.0000     28.6426     16.1356     60.0818
     342   1   1      0.0000     30.5895     14.7440     60.0088
     343   1   1      0.0000     31.9500     14.7571     60.0000
     344   1   1      0.0000     29.9480     15.9881     59.9715
     345   1   1      0.0000     32.6600     15.9868     60.0000
     346   1   1      0.0000      4.9700     17.2166     60.0000
     347   1   1      0.0000      6.3900     17.2166     60.0000
     348   1   1      0.0000      4.2600     18.4463     60.0000
     349   1   1      0.0000      7.1000     18.4463     60.0000
     350   1   1      0.0000      9.0419     17.6318     60.7464
     351   1   1      0.0000      8.4889     18.6917     60.2558
     352   1   1      0.0000     27.9837     17.3455     60.0263
     353   1   1      0.0000     28.5214     18.5550     59.8827
     354   1   1      0.0000     30.5300     17.2166     60.0000
     355   1   1      0.0000     31.9500     17.2166     60.0000
     356   1   1      0.0000     29.8200     18.4463     60.0000
     357   1   1      0.0000     32.6600     18.4463     60.0000
     358   1   1      0.0000      4.9700     19.6761     60.0000
     359   1   1      0.0000      6.3900     19.6761     60.0000
     360   1   1      0.0000      4.2600     20.9059     60.0000
     361   1   1      0.0000      7.1000     20.9059     60.0000
     362   1   1      0.0000      9.2003     19.8870     60.2359
     363   1   1      0.0000     10.5276     20.1064     60.5899
     364   1   1      0.0000      8.5255     21.0213     60.0664
     365   1   1      0.0000     11.2482     21.2406     60.3669
     366   1   1      0.0000     26.5559     19.8958     59.9386
     367   1   1      0.0000     27.8703     19.7832     59.8238
     368   1   1      0.0000     25.8549     21.0715     59.9562
     369   1   1      0.0000     28.4748     20.9849     59.8815
     370   1   1      0.0000     30.5300     19.6761     60.0000
     371   1   1      0.0000     31.9500     19.6761     60.0000
     372   1   1      0.0000     29.8200     20.9059     60.0000
     373   1   1      0.0000     32.6600     20.9059     60.0000
     374   1   1      0.0000      4.9700     22.1356     60.0000
     375   1   1      0.0000      6.3900     22.1356     60.0000
     376   1   1      0.0000      4.2600     23.3654     60.0000
     377   1   1      0.0000      7.1000     23.3654     60.0000
     378   1   1      0.0000      9.2283     22.2129     60.0398
     379   1   1      0.0000     10.5910     22.3454     60.0248
     380   1   1      0.0000      8.5200     23.3654     60.0000
     381   1   1      0.0000     11.2975     23.5438     59.9380
     382   1   1      0.0000     13.2741     22.5878     60.2734
     383   1   1      0.0000     12.6577     23.6620     59.9369
     384   1   1      0.0000     15.4554     23.6687     60.3542
     385   1   1      0.0000     16.7973     23.7273     60.5721
     386   1   1      0.0000     19.6835     23.7691     60.7021
     387   1   1      0.0000     23.8045     22.2714     60.5317
     388   1   1      0.0000     21.0688     23.7062     60.6549
     389   1   1      0.0000     24.2100     23.4553     60.0318
     390   1   1      0.0000     26.3925     22.2698     59.8564
     391   1   1      0.0000     27.7598     22.1906     59.8903
     392   1   1      0.0000     25.6057     23.4217     59.9303
     393   1   1      0.0000     28.4000     23.3654     60.0000
     394   1   1      0.0000     30.5300     22.1356     60.0000
     395   1   1      0.0000     31.9500     22.1356     60.0000
     396   1   1      0.0000     29.8200     23.3654     60.0000
     397   1   1      0.0000     32.6600     23.3654     60.0000
     398   1   1      0.0000      4.9700     24.5951     60.0000
     399   1   1      0.0000      6.3900     24.5951     60.0000
     400   1   1      0.0000      4.2600     25.8249     60.0000
     401   1   1      0.0000      7.1000     25.8249     60.0000
     402   1   1      0.0000      9.2300     24.5951     60.0000
     403   1   1      0.0000     10.6426     24.7003     59.9816
     404   1   1      0.0000      8.5200     25.8249     60.0000
     405   1   1      0.0000     11.3748     25.8849     60.0009
     406   1   1      0.0000     13.4396     24.7812     59.9343
     407   1   1      0.0000     14.8303     24.7935     60.0180
     408   1   1      0.0000     12.7667     25.9270     59.9781
     409   1   1      0.0000     15.6271     25.9076     60.0341
     410   1   1      0.0000     17.6524     24.7700     60.2230
     411   1   1      0.0000     19.0440     24.7875     60.2382
     412   1   1      0.0000     17.0102     25.9221     60.0611
     413   1   1      0.0000     19.8800     25.8249     60.0000
     414   1   1      0.0000     22.0339     24.6313     60.1690
     415   1   1      0.0000     23.4300     24.5951     60.0000
     416   1   1      0.0000     21.3000     25.8249     60.0000
     417   1   1      0.0000     24.1400     25.8249     60.0000
     418   1   1      0.0000     26.2700     24.5951     60.0000
     419   1   1      0.0000     27.6900     24.5951     60.0000
     420   1   1      0.0000     25.5600     25.8249     60.0000
     421   1   1      0.0000     28.4000     25.8249     60.0000
     422   1   1      0.0000     30.5300     24.5951     60.0000
     423   1   1      0.0000     31.9500     24.5951     60.0000
     424   1   1      0.0000     29.8200     25.8249     60.0000
     425   1   1      0.0000     32.6600     25.8249     60.0000
     426   1   1      0.0000      4.9700     27.0546     60.0000
     427   1   1      0.0000      6.3900     27.0546     60.0000
     428   1   1      0.0000      4.2000     28.3883     60.0000
     429   1   1      0.0000      7.1000     28.2844     60.0000
     430   1   1      0.0000      9.2300     27.0546     60.0000
     431   1   1      0.0000     10.6500     27.0546     60.0000
     432   1   1      0.0000      8.5200     28.2844     60.0000
     433   1   1      0.0000     11.3600     28.2844     60.0000
     434   1   1      0.0000     13.4900     27.0546     60.0000
     435   1   1      0.0000     14.9100     27.0546     60.0000
     436   1   1      0.0000     12.7800     28.2844     60.0000
     437   1   1      0.0000     15.6200     28.2844     60.0000
     438   1   1      0.0000     17.7500     27.0546     60.0000
     439   1   1      0.0000     19.1700     27.0546     60.0000
     440   1   1      0.0000     17.0400     28.2844     60.0000
     441   1   1      0.0000     19.8800     28.2844     60.0000
     442   1   1      0.0000     22.0100     27.0546     60.0000
     443   1   1      0.0000     23.4300     27.0546     60.0000
     444   1   1      0.0000     21.3000     28.2844     60.0000
     445   1   1      0.0000     24.1400     28.2844     60.0000
     446   1   1      0.0000     26.2700     27.0546     60.0000
     447   1   1      0.0000     27.6900     27.0546     60.0000
     448   1   1      0.0000     25.5600     28.2844     60.0000
     449   1   1      0.0000     28.4000     28.2844     60.0000
     450   1   1      0.0000     30.5300     27.0546     60.0000
     451   1   1      0.0000     31.9500     27.0546     60.0000
     452   1   1      0.0000     29.8200     28.2844     60.0000
     453   1   1      0.0000     32.7200     28.3883     60.0000
     454   1   1      0.0000     28.1674     15.0274     60.6117
     455   1   1      0.0000     27.4283     15.5491     61.5671
     456   1   1      0.0000     26.8662     16.7772     61.5555
     457   1   1      0.0000     25.5444     19.2641     61.5304