
    1494 atoms
    2241 bonds
    4482 angles
    8964 dihedrals

       2 atom types
       2 bond types
       2 angle types
       2 dihedral types

  0.0000 29.8200 xlo xhi
  0.0000 29.4720 ylo yhi
-20.0000 20.0000 zlo zhi

 Masses


       1 12.01070
       2  1.00794

 Atoms

       1   1   1      0.0000      4.9700      0.0000     75.9643
       2   1   1      0.0000      6.3900      0.0000     75.9643
       3   1   1      0.0000      4.2600      1.2298     75.9643
       4   1   1      0.0000      7.1000      1.2298     75.9643
       5   1   1      0.0000      9.2300      0.0000     75.9643
       6   1   1      0.0000     10.6500      0.0000     75.9643
       7   1   1      0.0000      8.5200      1.2298     75.9643
       8   1   1      0.0000     11.3600      1.2298     75.9643
       9   1   1      0.0000     13.4900      0.0000     75.9643
      10   1   1      0.0000     14.9100      0.0000     75.9643
      11   1   1      0.0000     12.7800      1.2298     75.9643
      12   1   1      0.0000     15.6200      1.2298     75.9643
      13   1   1      0.0000     17.7500      0.0000     75.9643
      14   1   1      0.0000     19.1700      0.0000     75.9643
      15   1   1      0.0000     17.0400      1.2298     75.9643
      16   1   1      0.0000     19.8800      1.2298     75.9643
      17   1   1      0.0000     22.0100      0.0000     75.9643
      18   1   1      0.0000     23.4300      0.0000     75.9643
      19   1   1      0.0000     21.3000      1.2298     75.9643
      20   1   1      0.0000     24.1400      1.2298     75.9643
      21   1   1      0.0000     26.2700      0.0000     75.9643
      22   1   1      0.0000     27.6900      0.0000     75.9643
      23   1   1      0.0000     25.5600      1.2298     75.9643
      24   1   1      0.0000     28.4000      1.2298     75.9643
      25   1   1      0.0000     30.5300      0.0000     75.9643
      26   1   1      0.0000     31.9500      0.0000     75.9643
      27   1   1      0.0000     29.8200      1.2298     75.9643
      28   1   1      0.0000     32.6600      1.2298     75.9643
      29   1   1      0.0000      4.9700      2.4595     75.9643
      30   1   1      0.0000      6.3900      2.4595     75.9643
      31   1   1      0.0000      4.2600      3.6893     75.9643
      32   1   1      0.0000      7.1000      3.6893     75.9643
      33   1   1      0.0000      9.2300      2.4595     75.9643
      34   1   1      0.0000     10.6500      2.4595     75.9643
      35   1   1      0.0000      8.5200      3.6893     75.9643
      36   1   1      0.0000     11.3537      3.6712     75.9903
      37   1   1      0.0000     13.4900      2.4595     75.9643
      38   1   1      0.0000     14.9100      2.4595     75.9643
      39   1   1      0.0000     12.7800      3.6893     75.9643
      40   1   1      0.0000     15.6200      3.6893     75.9643
      41   1   1      0.0000     17.7500      2.4595     75.9643
      42   1   1      0.0000     19.1700      2.4595     75.9643
      43   1   1      0.0000     17.0400      3.6893     75.9643
      44   1   1      0.0000     19.8800      3.6893     75.9643
      45   1   1      0.0000     22.0100      2.4595     75.9643
      46   1   1      0.0000     23.4300      2.4595     75.9643
      47   1   1      0.0000     21.3000      3.6893     75.9643
      48   1   1      0.0000     24.1400      3.6893     75.9643
      49   1   1      0.0000     26.2700      2.4595     75.9643
      50   1   1      0.0000     27.6900      2.4595     75.9643
      51   1   1      0.0000     25.5600      3.6893     75.9643
      52   1   1      0.0000     28.4000      3.6893     75.9643
      53   1   1      0.0000     30.5300      2.4595     75.9643
      54   1   1      0.0000     31.9500      2.4595     75.9643
      55   1   1      0.0000     29.8200      3.6893     75.9643
      56   1   1      0.0000     32.6600      3.6893     75.9643
      57   1   1      0.0000      4.9700      4.9190     75.9643
      58   1   1      0.0000      6.3900      4.9190     75.9643
      59   1   1      0.0000      4.2600      6.1488     75.9643
      60   1   1      0.0000      7.1000      6.1488     75.9643
      61   1   1      0.0000      9.1969      4.8910     76.0249
      62   1   1      0.0000     10.5921      4.8566     76.0743
      63   1   1      0.0000      8.4796      6.1056     76.0368
      64   1   1      0.0000     11.2316      6.0597     76.2411
      65   1   1      0.0000     13.4230      4.8747     76.1064
      66   1   1      0.0000     14.8252      4.8499     76.0843
      67   1   1      0.0000     12.6243      6.0289     76.2799
      68   1   1      0.0000     15.4375      6.0575     76.1062
      69   1   1      0.0000     17.6951      4.8770     76.0153
      70   1   1      0.0000     19.1237      4.8656     76.0038
      71   1   1      0.0000     16.8466      6.0080     76.0124
      72   1   1      0.0000     19.8378      6.0430     75.9711
      73   1   1      0.0000     22.0100      4.9190     75.9643
      74   1   1      0.0000     23.4300      4.9190     75.9643
      75   1   1      0.0000     21.2813      6.0729     75.9688
      76   1   1      0.0000     24.1400      6.1488     75.9643
      77   1   1      0.0000     26.2700      4.9190     75.9643
      78   1   1      0.0000     27.6900      4.9190     75.9643
      79   1   1      0.0000     25.5600      6.1488     75.9643
      80   1   1      0.0000     28.4000      6.1488     75.9643
      81   1   1      0.0000     30.5300      4.9190     75.9643
      82   1   1      0.0000     31.9500      4.9190     75.9643
      83   1   1      0.0000     29.8200      6.1488     75.9643
      84   1   1      0.0000     32.6600      6.1488     75.9643
      85   1   1      0.0000      4.9700      7.3785     75.9643
      86   1   1      0.0000      6.3900      7.3785     75.9643
      87   1   1      0.0000      4.2600      8.6083     75.9643
      88   1   1      0.0000      7.1000      8.6083     75.9643
      89   1   1      0.0000      9.1256      7.3176     76.1596
      90   1   1      0.0000     10.4869      7.2654     76.3163
      91   1   1      0.0000      8.4487      8.5577     76.1134
      92   1   1      0.0000     11.0812      8.4863     76.4890
      93   1   1      0.0000     13.2138      7.2400     76.4048
      94   1   1      0.0000     14.5863      7.2027     76.2090
      95   1   1      0.0000     12.4326      8.4263     76.5306
      96   1   1      0.0000     22.0931      7.2105     76.0098
      97   1   1      0.0000     23.4790      7.2847     76.0567
      98   1   1      0.0000     24.2246      8.4602     76.1065
      99   1   1      0.0000     26.2700      7.3785     75.9643
     100   1   1      0.0000     27.6900      7.3785     75.9643
     101   1   1      0.0000     25.5600      8.6083     75.9643
     102   1   1      0.0000     28.4000      8.6083     75.9643
     103   1   1      0.0000     30.5300      7.3785     75.9643
     104   1   1      0.0000     31.9500      7.3785     75.9643
     105   1   1      0.0000     29.8200      8.6083     75.9643
     106   1   1      0.0000     32.6600      8.6083     75.9643
     107   1   1      0.0000      4.9700      9.8380     75.9643
     108   1   1      0.0000      6.3900      9.8380     75.9643
     109   1   1      0.0000      4.2600     11.0678     75.9643
     110   1   1      0.0000      7.1000     11.0678     75.9643
     111   1   1      0.0000      9.0722      9.7858     76.2315
     112   1   1      0.0000     10.3986      9.7360     76.4461
     113   1   1      0.0000      8.4409     11.0407     76.1073
     114   1   1      0.0000     10.9946     10.9860     76.4620
     115   1   1      0.0000     26.2700      9.8380     75.9643
     116   1   1      0.0000     27.6900      9.8380     75.9643
     117   1   1      0.0000     25.6745     11.0158     76.0939
     118   1   1      0.0000     28.4000     11.0678     75.9643
     119   1   1      0.0000     30.5300      9.8380     75.9643
     120   1   1      0.0000     31.9500      9.8380     75.9643
     121   1   1      0.0000     29.8200     11.0678     75.9643
     122   1   1      0.0000     32.6600     11.0678     75.9643
     123   1   1      0.0000      4.9700     12.2976     75.9643
     124   1   1      0.0000      6.3900     12.2976     75.9643
     125   1   1      0.0000      4.2600     13.5273     75.9643
     126   1   1      0.0000      7.1000     13.5273     75.9643
     127   1   1      0.0000      9.0930     12.2744     76.1270
     128   1   1      0.0000     10.4122     12.2527     76.2830
     129   1   1      0.0000      8.5200     13.5273     75.9643
     130   1   1      0.0000     11.0828     13.4844     76.1184
     131   1   1      0.0000     26.3430     12.2504     76.0360
     132   1   1      0.0000     27.6900     12.2976     75.9643
     133   1   1      0.0000     25.6992     13.4581     75.9671
     134   1   1      0.0000     28.4000     13.5273     75.9643
     135   1   1      0.0000     30.5300     12.2976     75.9643
     136   1   1      0.0000     31.9500     12.2976     75.9643
     137   1   1      0.0000     29.8200     13.5273     75.9643
     138   1   1      0.0000     32.6600     13.5273     75.9643
     139   1   1      0.0000      4.9700     14.7571     75.9643
     140   1   1      0.0000      6.3900     14.7571     75.9643
     141   1   1      0.0000      4.2600     15.9868     75.9643
     142   1   1      0.0000      7.1000     15.9868     75.9643
     143   1   1      0.0000      9.2300     14.7571     75.9643
     144   1   1      0.0000     10.5878     14.7704     75.9960
     145   1   1      0.0000      8.5200     15.9868     75.9643
     146   1   1      0.0000     11.3600     15.9868     75.9643
     147   1   1      0.0000     24.4837     16.0872     75.4921
     148   1   1      0.0000     26.3711     14.7166     75.9534
     149   1   1      0.0000     27.7458     14.7540     75.9985
     150   1   1      0.0000     25.7478     15.9628     75.9191
     151   1   1      0.0000     28.4299     15.9878     75.9967
     152   1   1      0.0000     30.5300     14.7571     75.9643
     153   1   1      0.0000     31.9500     14.7571     75.9643
     154   1   1      0.0000     29.8200     15.9868     75.9643
     155   1   1      0.0000     32.6600     15.9868     75.9643
     156   1   1      0.0000      4.9700     17.2166     75.9643
     157   1   1      0.0000      6.3900     17.2166     75.9643
     158   1   1      0.0000      4.2600     18.4463     75.9643
     159   1   1      0.0000      7.1000     18.4463     75.9643
     160   1   1      0.0000      9.2300     17.2166     75.9643
     161   1   1      0.0000     10.6500     17.2166     75.9643
     162   1   1      0.0000      8.5200     18.4463     75.9643
     163   1   1      0.0000     11.3600     18.4463     75.9643
     164   1   1      0.0000     13.4727     17.3780     75.7371
     165   1   1      0.0000     12.7800     18.4463     75.9643
     166   1   1      0.0000     24.2788     18.5229     75.9257
     167   1   1      0.0000     26.3653     17.2247     76.0151
     168   1   1      0.0000     27.7488     17.2218     76.0180
     169   1   1      0.0000     25.6585     18.4641     76.0147
     170   1   1      0.0000     28.4160     18.4553     75.9827
     171   1   1      0.0000     30.5300     17.2166     75.9643
     172   1   1      0.0000     31.9500     17.2166     75.9643
     173   1   1      0.0000     29.8200     18.4463     75.9643
     174   1   1      0.0000     32.6600     18.4463     75.9643
     175   1   1      0.0000      4.9700     19.6761     75.9643
     176   1   1      0.0000      6.3900     19.6761     75.9643
     177   1   1      0.0000      4.2600     20.9059     75.9643
     178   1   1      0.0000      7.1000     20.9059     75.9643
     179   1   1      0.0000      9.2300     19.6761     75.9643
     180   1   1      0.0000     10.6500     19.6761     75.9643
     181   1   1      0.0000      8.5200     20.9059     75.9643
     182   1   1      0.0000     11.3600     20.9059     75.9643
     183   1   1      0.0000     13.5015     19.7079     76.0065
     184   1   1      0.0000     14.9420     19.8632     76.1005
     185   1   1      0.0000     12.7800     20.9059     75.9643
     186   1   1      0.0000     15.6428     21.0221     76.0896
     187   1   1      0.0000     17.0527     21.0540     76.1322
     188   1   1      0.0000     20.0156     21.1216     76.1471
     189   1   1      0.0000     22.1685     19.8665     76.0025
     190   1   1      0.0000     23.5550     19.7522     75.9768
     191   1   1      0.0000     21.4185     21.0520     76.0993
     192   1   1      0.0000     24.2142     20.9583     76.0267
     193   1   1      0.0000     26.3074     19.6951     76.0088
     194   1   1      0.0000     27.6900     19.6761     75.9643
     195   1   1      0.0000     25.6022     20.9198     75.9997
     196   1   1      0.0000     28.4000     20.9059     75.9643
     197   1   1      0.0000     30.5300     19.6761     75.9643
     198   1   1      0.0000     31.9500     19.6761     75.9643
     199   1   1      0.0000     29.8200     20.9059     75.9643
     200   1   1      0.0000     32.6600     20.9059     75.9643
     201   1   1      0.0000      4.9700     22.1356     75.9643
     202   1   1      0.0000      6.3900     22.1356     75.9643
     203   1   1      0.0000      4.2600     23.3654     75.9643
     204   1   1      0.0000      7.1000     23.3654     75.9643
     205   1   1      0.0000      9.2300     22.1356     75.9643
     206   1   1      0.0000     10.6500     22.1356     75.9643
     207   1   1      0.0000      8.5200     23.3654     75.9643
     208   1   1      0.0000     11.3600     23.3654     75.9643
     209   1   1      0.0000     13.4900     22.1356     75.9643
     210   1   1      0.0000     14.9100     22.1356     75.9643
     211   1   1      0.0000     12.7800     23.3654     75.9643
     212   1   1      0.0000     15.6200     23.3654     75.9643
     213   1   1      0.0000     17.7500     22.1356     75.9643
     214   1   1      0.0000     19.1823     22.2062     76.0308
     215   1   1      0.0000     17.0400     23.3654     75.9643
     216   1   1      0.0000     19.8800     23.3654     75.9643
     217   1   1      0.0000     22.0846     22.2144     76.0307
     218   1   1      0.0000     23.4787     22.1655     76.0090
     219   1   1      0.0000     21.3000     23.3654     75.9643
     220   1   1      0.0000     24.1400     23.3654     75.9643
     221   1   1      0.0000     26.2700     22.1356     75.9643
     222   1   1      0.0000     27.6900     22.1356     75.9643
     223   1   1      0.0000     25.5600     23.3654     75.9643
     224   1   1      0.0000     28.4000     23.3654     75.9643
     225   1   1      0.0000     30.5300     22.1356     75.9643
     226   1   1      0.0000     31.9500     22.1356     75.9643
     227   1   1      0.0000     29.8200     23.3654     75.9643
     228   1   1      0.0000     32.6600     23.3654     75.9643
     229   1   1      0.0000      4.9700     24.5951     75.9643
     230   1   1      0.0000      6.3900     24.5951     75.9643
     231   1   1      0.0000      4.2600     25.8249     75.9643
     232   1   1      0.0000      7.1000     25.8249     75.9643
     233   1   1      0.0000      9.2300     24.5951     75.9643
     234   1   1      0.0000     10.6500     24.5951     75.9643
     235   1   1      0.0000      8.5200     25.8249     75.9643
     236   1   1      0.0000     11.3600     25.8249     75.9643
     237   1   1      0.0000     13.4900     24.5951     75.9643
     238   1   1      0.0000     14.9100     24.5951     75.9643
     239   1   1      0.0000     12.7800     25.8249     75.9643
     240   1   1      0.0000     15.6200     25.8249     75.9643
     241   1   1      0.0000     17.7500     24.5951     75.9643
     242   1   1      0.0000     19.1700     24.5951     75.9643
     243   1   1      0.0000     17.0400     25.8249     75.9643
     244   1   1      0.0000     19.8800     25.8249     75.9643
     245   1   1      0.0000     22.0100     24.5951     75.9643
     246   1   1      0.0000     23.4300     24.5951     75.9643
     247   1   1      0.0000     21.3000     25.8249     75.9643
     248   1   1      0.0000     24.1400     25.8249     75.9643
     249   1   1      0.0000     26.2700     24.5951     75.9643
     250   1   1      0.0000     27.6900     24.5951     75.9643
     251   1   1      0.0000     25.5600     25.8249     75.9643
     252   1   1      0.0000     28.4000     25.8249     75.9643
     253   1   1      0.0000     30.5300     24.5951     75.9643
     254   1   1      0.0000     31.9500     24.5951     75.9643
     255   1   1      0.0000     29.8200     25.8249     75.9643
     256   1   1      0.0000     32.6600     25.8249     75.9643
     257   1   1      0.0000      4.9700     27.0546     75.9643
     258   1   1      0.0000      6.3900     27.0546     75.9643
     259   1   1      0.0000      4.2000     28.3883     75.9643
     260   1   1      0.0000      7.1000     28.2844     75.9643
     261   1   1      0.0000      9.2300     27.0546     75.9643
     262   1   1      0.0000     10.6500     27.0546     75.9643
     263   1   1      0.0000      8.5200     28.2844     75.9643
     264   1   1      0.0000     11.3600     28.2844     75.9643
     265   1   1      0.0000     13.4900     27.0546     75.9643
     266   1   1      0.0000     14.9100     27.0546     75.9643
     267   1   1      0.0000     12.7800     28.2844     75.9643
     268   1   1      0.0000     15.6200     28.2844     75.9643
     269   1   1      0.0000     17.7500     27.0546     75.9643
     270   1   1      0.0000     19.1700     27.0546     75.9643
     271   1   1      0.0000     17.0400     28.2844     75.9643
     272   1   1      0.0000     19.8800     28.2844     75.9643
     273   1   1      0.0000     22.0100     27.0546     75.9643
     274   1   1      0.0000     23.4300     27.0546     75.9643
     275   1   1      0.0000     21.3000     28.2844     75.9643
     276   1   1      0.0000     24.1400     28.2844     75.9643
     277   1   1      0.0000     26.2700     27.0546     75.9643
     278   1   1      0.0000     27.6900     27.0546     75.9643
     279   1   1      0.0000     25.5600     28.2844     75.9643
     280   1   1      0.0000     28.4000     28.2844     75.9643
     281   1   1      0.0000     30.5300     27.0546     75.9643
     282   1   1      0.0000     31.9500     27.0546     75.9643
     283   1   1      0.0000     29.8200     28.2844     75.9643
     284   1   1      0.0000     32.7200     28.3883     75.9643
     285   1   1      0.0000      4.9700      0.0000     60.0000
     286   1   1      0.0000      6.3900      0.0000     60.0000
     287   1   1      0.0000      4.2600      1.2298     60.0000
     288   1   1      0.0000      7.1000      1.2298     60.0000
     289   1   1      0.0000      9.2300      0.0000     60.0000
     290   1   1      0.0000     10.6500      0.0000     60.0000
     291   1   1      0.0000      8.5200      1.2298     60.0000
     292   1   1      0.0000     11.3600      1.2298     60.0000
     293   1   1      0.0000     13.4900      0.0000     60.0000
     294   1   1      0.0000     14.9100      0.0000     60.0000
     295   1   1      0.0000     12.7800      1.2298     60.0000
     296   1   1      0.0000     15.6200      1.2298     60.0000
     297   1   1      0.0000     17.7500      0.0000     60.0000
     298   1   1      0.0000     19.1700      0.0000     60.0000
     299   1   1      0.0000     17.0400      1.2298     60.0000
     300   1   1      0.0000     19.8800      1.2298     60.0000
     301   1   1      0.0000     22.0100      0.0000     60.0000
     302   1   1      0.0000     23.4300      0.0000     60.0000
     303   1   1      0.0000     21.3000      1.2298     60.0000
     304   1   1      0.0000     24.1400      1.2298     60.0000
     305   1   1      0.0000     26.2700      0.0000     60.0000
     306   1   1      0.0000     27.6900      0.0000     60.0000
     307   1   1      0.0000     25.5600      1.2298     60.0000
     308   1   1      0.0000     28.4000      1.2298     60.0000
     309   1   1      0.0000     30.5300      0.0000     60.0000
     310   1   1      0.0000     31.9500      0.0000     60.0000
     311   1   1      0.0000     29.8200      1.2298     60.0000
     312   1   1      0.0000     32.6600      1.2298     60.0000
     313   1   1      0.0000      4.9700      2.4595     60.0000
     314   1   1      0.0000      6.3900      2.4595     60.0000
     315   1   1      0.0000      4.2600      3.6893     60.0000
     316   1   1      0.0000      7.1000      3.6893     60.0000
     317   1   1      0.0000      9.2300      2.4595     60.0000
     318   1   1      0.0000     10.6500      2.4595     60.0000
     319   1   1      0.0000      8.5200      3.6893     60.0000
     320   1   1      0.0000     11.3600      3.6893     60.0000
     321   1   1      0.0000     13.4900      2.4595     60.0000
     322   1   1      0.0000     14.8869      2.4172     59.9605
     323   1   1      0.0000     12.7520      3.6543     59.9617
     324   1   1      0.0000     15.5714      3.5983     59.8581
     325   1   1      0.0000     17.7499      2.4178     59.9549
     326   1   1      0.0000     19.1700      2.4595     60.0000
     327   1   1      0.0000     16.9849      3.5664     59.8471
     328   1   1      0.0000     19.8876      3.6264     59.9396
     329   1   1      0.0000     22.0100      2.4595     60.0000
     330   1   1      0.0000     23.4300      2.4595     60.0000
     331   1   1      0.0000     21.3000      3.6893     60.0000
     332   1   1      0.0000     24.1400      3.6893     60.0000
     333   1   1      0.0000     26.2700      2.4595     60.0000
     334   1   1      0.0000     27.6900      2.4595     60.0000
     335   1   1      0.0000     25.5600      3.6893     60.0000
     336   1   1      0.0000     28.4000      3.6893     60.0000
     337   1   1      0.0000     30.5300      2.4595     60.0000
     338   1   1      0.0000     31.9500      2.4595     60.0000
     339   1   1      0.0000     29.8200      3.6893     60.0000
     340   1   1      0.0000     32.6600      3.6893     60.0000
     341   1   1      0.0000      4.9700      4.9190     60.0000
     342   1   1      0.0000      6.3900      4.9190     60.0000
     343   1   1      0.0000      4.2600      6.1488     60.0000
     344   1   1      0.0000      7.1000      6.1488     60.0000
     345   1   1      0.0000      9.2300      4.9190     60.0000
     346   1   1      0.0000     10.6278      4.8970     59.9752
     347   1   1      0.0000      8.5200      6.1488     60.0000
     348   1   1      0.0000     11.2937      6.1130     59.9292
     349   1   1      0.0000     13.4159      4.8510     59.8781
     350   1   1      0.0000     14.8103      4.7797     59.8112
     351   1   1      0.0000     12.6841      6.0646     59.8875
     352   1   1      0.0000     15.4906      5.9454     59.8030
     353   1   1      0.0000     17.6894      4.7241     59.7656
     354   1   1      0.0000     19.1163      4.7435     59.8140
     355   1   1      0.0000     16.8958      5.8535     59.7660
     356   1   1      0.0000     19.8441      5.8953     59.8343
     357   1   1      0.0000     22.0100      4.9190     60.0000
     358   1   1      0.0000     23.4300      4.9190     60.0000
     359   1   1      0.0000     21.2560      6.0189     59.9282
     360   1   1      0.0000     24.1400      6.1488     60.0000
     361   1   1      0.0000     26.2700      4.9190     60.0000
     362   1   1      0.0000     27.6900      4.9190     60.0000
     363   1   1      0.0000     25.5600      6.1488     60.0000
     364   1   1      0.0000     28.4000      6.1488     60.0000
     365   1   1      0.0000     30.5300      4.9190     60.0000
     366   1   1      0.0000     31.9500      4.9190     60.0000
     367   1   1      0.0000     29.8200      6.1488     60.0000
     368   1   1      0.0000     32.6600      6.1488     60.0000
     369   1   1      0.0000      4.9700      7.3785     60.0000
     370   1   1      0.0000      6.3900      7.3785     60.0000
     371   1   1      0.0000      4.2600      8.6083     60.0000
     372   1   1      0.0000      7.1000      8.6083     60.0000
     373   1   1      0.0000      9.2003      7.3710     59.9780
     374   1   1      0.0000     10.5866      7.3401     59.9361
     375   1   1      0.0000      8.5200      8.6083     60.0000
     376   1   1      0.0000     11.2441      8.5664     59.9633
     377   1   1      0.0000     13.3495      7.2645     59.9838
     378   1   1      0.0000     14.7363      7.1248     59.9946
     379   1   1      0.0000     12.6183      8.4876     60.0779
     380   1   1      0.0000     21.9812      7.1824     60.0529
     381   1   1      0.0000     23.4048      7.2967     60.0511
     382   1   1      0.0000     24.1732      8.4636     60.0935
     383   1   1      0.0000     26.2700      7.3785     60.0000
     384   1   1      0.0000     27.6900      7.3785     60.0000
     385   1   1      0.0000     25.5600      8.6083     60.0000
     386   1   1      0.0000     28.4000      8.6083     60.0000
     387   1   1      0.0000     30.5300      7.3785     60.0000
     388   1   1      0.0000     31.9500      7.3785     60.0000
     389   1   1      0.0000     29.8200      8.6083     60.0000
     390   1   1      0.0000     32.6600      8.6083     60.0000
     391   1   1      0.0000      4.9700      9.8380     60.0000
     392   1   1      0.0000      6.3900      9.8380     60.0000
     393   1   1      0.0000      4.2600     11.0678     60.0000
     394   1   1      0.0000      7.1000     11.0678     60.0000
     395   1   1      0.0000      9.1859      9.8330     59.9767
     396   1   1      0.0000     10.5531      9.8172     59.9752
     397   1   1      0.0000      8.5200     11.0678     60.0000
     398   1   1      0.0000     11.1465     11.0867     60.0719
     399   1   1      0.0000     13.0078      9.7131     60.5657
     400   1   1      0.0000     12.3747     10.9238     60.5571
     401   1   1      0.0000     23.7049      9.6081     60.5343
     402   1   1      0.0000     24.4806     10.7206     60.5529
     403   1   1      0.0000     26.2700      9.8380     60.0000
     404   1   1      0.0000     27.6900      9.8380     60.0000
     405   1   1      0.0000     25.7003     11.0072     60.1318
     406   1   1      0.0000     28.4000     11.0678     60.0000
     407   1   1      0.0000     30.5300      9.8380     60.0000
     408   1   1      0.0000     31.9500      9.8380     60.0000
     409   1   1      0.0000     29.8200     11.0678     60.0000
     410   1   1      0.0000     32.6600     11.0678     60.0000
     411   1   1      0.0000      4.9700     12.2976     60.0000
     412   1   1      0.0000      6.3900     12.2976     60.0000
     413   1   1      0.0000      4.2600     13.5273     60.0000
     414   1   1      0.0000      7.1000     13.5273     60.0000
     415   1   1      0.0000      9.1575     12.3123     59.9481
     416   1   1      0.0000     10.5201     12.3437     59.9940
     417   1   1      0.0000      8.4763     13.5340     59.9514
     418   1   1      0.0000     11.1441     13.6200     59.9605
     419   1   1      0.0000     26.3569     12.2288     60.1512
     420   1   1      0.0000     27.6900     12.2976     60.0000
     421   1   1      0.0000     25.7599     13.3941     60.5135
     422   1   1      0.0000     28.4000     13.5273     60.0000
     423   1   1      0.0000     30.5300     12.2976     60.0000
     424   1   1      0.0000     31.9500     12.2976     60.0000
     425   1   1      0.0000     29.8200     13.5273     60.0000
     426   1   1      0.0000     32.6600     13.5273     60.0000
     427   1   1      0.0000      4.9700     14.7571     60.0000
     428   1   1      0.0000      6.3900     14.7571     60.0000
     429   1   1      0.0000      4.2600     15.9868     60.0000
     430   1   1      0.0000      7.1000     15.9868     60.0000
     431   1   1      0.0000      9.1475     14.7656     59.9138
     432   1   1      0.0000     10.5008     14.8353     59.8307
     433   1   1      0.0000      8.5200     15.9868     60.0000
     434   1   1      0.0000     11.1664     16.0905     59.7493
     435   1   1      0.0000     26.3483     14.6815     60.3565
     436   1   1      0.0000     27.6900     14.7571     60.0000
     437   1   1      0.0000     25.7227     15.8961     60.6086
     438   1   1      0.0000     28.4000     15.9868     60.0000
     439   1   1      0.0000     30.5300     14.7571     60.0000
     440   1   1      0.0000     31.9500     14.7571     60.0000
     441   1   1      0.0000     29.8200     15.9868     60.0000
     442   1   1      0.0000     32.6600     15.9868     60.0000
     443   1   1      0.0000      4.9700     17.2166     60.0000
     444   1   1      0.0000      6.3900     17.2166     60.0000
     445   1   1      0.0000      4.2600     18.4463     60.0000
     446   1   1      0.0000      7.1000     18.4463     60.0000
     447   1   1      0.0000      9.2300     17.2166     60.0000
     448   1   1      0.0000     10.5694     17.2969     59.8422
     449   1   1      0.0000      8.5200     18.4463     60.0000
     450   1   1      0.0000     11.2902     18.5093     59.8527
     451   1   1      0.0000     12.6617     18.6176     59.7759
     452   1   1      0.0000     24.2967     18.4474     60.6962
     453   1   1      0.0000     26.3123     17.1731     60.2700
     454   1   1      0.0000     27.6900     17.2166     60.0000
     455   1   1      0.0000     25.6390     18.4176     60.3238
     456   1   1      0.0000     28.4000     18.4463     60.0000
     457   1   1      0.0000     30.5300     17.2166     60.0000