
    3900 atoms
    2600 bonds
    1300 angles
       4 atom types
       1 bond types
       1 angle types

      0.0000     30.0000 xlo xhi
      0.0000     30.0000 ylo yhi
      0.0000     60.0000 zlo zhi

 Masses

 1  1.007940
 2 15.999400
 3 22.989771
 4 35.452999

Atoms

       1       1       2     -0.8476      4.1680     10.5820     92.9040
       2       1       1      0.4238      3.7240     10.9510     92.1010
       3       1       1      0.4238      3.5920     10.8790     93.6270
       4       2       2     -0.8476      6.5330      5.3760     97.8910
       5       2       1      0.4238      6.5780      5.7240     98.7980
       6       2       1      0.4238      7.0920      4.5880     97.9610
       7       3       2     -0.8476      5.0690      4.4600    106.8870
       8       3       1      0.4238      4.4590      3.6600    106.9800
       9       3       1      0.4238      4.4950      5.1550    106.4220
      10       4       2     -0.8476      1.4750     14.5070    115.5670
      11       4       1      0.4238      1.6370     13.7630    114.9660
      12       4       1      0.4238      1.1190     14.0390    116.3600
      13       5       2     -0.8476      6.8870      0.8740    127.8560
      14       5       1      0.4238      6.8060      0.6000    126.9240
      15       5       1      0.4238      7.6560      1.5260    127.7740
      16       6       2     -0.8476      1.4240      4.7490    127.2310
      17       6       1      0.4238      1.8530      4.2140    127.9910
      18       6       1      0.4238      1.1600      5.5860    127.7170
      19       7       2     -0.8476      5.6860     17.1960     89.0720
      20       7       1      0.4238      6.5830     17.4790     88.8160
      21       7       1      0.4238      5.8370     16.3320     89.4900
      22       8       2     -0.8476     14.9370      6.2940    107.5560
      23       8       1      0.4238     14.0240      5.8190    107.5320
      24       8       1      0.4238     15.4840      5.6130    107.9730
      25       9       2     -0.8476      8.8240     14.3110     98.3320
      26       9       1      0.4238      9.1330     13.8480     99.1120
      27       9       1      0.4238      9.0060     13.6160     97.6450
      28      10       2     -0.8476     11.9620     26.5260    108.3730
      29      10       1      0.4238     11.8860     27.1950    109.0760
      30      10       1      0.4238     11.1190     26.5800    107.9360
      31      11       2     -0.8476      8.9370      2.6690    128.6510
      32      11       1      0.4238      9.5390      2.9000    127.8930
      33      11       1      0.4238      8.7710      3.4120    129.1440
      34      12       2     -0.8476      4.2860     16.8180     78.3100
      35      12       1      0.4238      4.2810     15.8880     78.1960
      36      12       1      0.4238      5.0280     17.0800     77.7810
      37      13       2     -0.8476      6.7050      7.4910     95.4420
      38      13       1      0.4238      7.2820      7.8470     96.1520
      39      13       1      0.4238      5.8090      7.5620     95.8000
      40      14       2     -0.8476     16.6260     15.2010     81.5770
      41      14       1      0.4238     16.5700     14.7720     80.7260
      42      14       1      0.4238     17.3050     15.9540     81.4450
      43      15       2     -0.8476      3.2500      9.3440     86.6290
      44      15       1      0.4238      2.6100      8.7900     86.9980
      45      15       1      0.4238      2.6640      9.7450     85.9620
      46      16       2     -0.8476      4.4350     16.6950     99.1090
      47      16       1      0.4238      5.3700     16.5340     98.9850
      48      16       1      0.4238      4.1550     15.8670     99.5810
      49      17       2     -0.8476      3.4910     11.6620    104.8600
      50      17       1      0.4238      4.0940     11.4680    104.1290
      51      17       1      0.4238      2.9140     12.2750    104.4300
      52      18       2     -0.8476      4.7400      7.5370    104.0810
      53      18       1      0.4238      5.1560      8.3310    103.6580
      54      18       1      0.4238      4.2860      7.9280    104.8120
      55      19       2     -0.8476      7.6720      7.4990    115.5810
      56      19       1      0.4238      7.5400      8.0500    116.3270
      57      19       1      0.4238      6.7440      7.2560    115.2630
      58      20       2     -0.8476     11.1740      9.4090     81.9860
      59      20       1      0.4238     11.4980      9.3710     82.9320
      60      20       1      0.4238     10.2480      9.7700     82.0750
      61      21       2     -0.8476      0.5020      6.1670     91.5910
      62      21       1      0.4238      0.9830      6.4900     90.8300
      63      21       1      0.4238      1.1080      6.2810     92.3470
      64      22       2     -0.8476     10.3820      9.6560     91.9160
      65      22       1      0.4238     10.0740     10.2530     92.5970
      66      22       1      0.4238     10.5210      8.7640     92.2890
      67      23       2     -0.8476      8.4640      6.6070    106.4530
      68      23       1      0.4238      8.7420      5.7060    106.5990
      69      23       1      0.4238      8.9220      7.0450    107.2370
      70      24       2     -0.8476     24.6770     14.7710    115.1260
      71      24       1      0.4238     24.0340     14.4420    114.4590
      72      24       1      0.4238     25.5620     14.5820    114.6820
      73      25       2     -0.8476      6.8160      5.7880    104.4950
      74      25       1      0.4238      7.1400      6.1310    105.3630
      75      25       1      0.4238      6.0630      6.3520    104.2800
      76      26       2     -0.8476      2.1610      7.1810     78.9430
      77      26       1      0.4238      2.4430      6.2390     78.9810
      78      26       1      0.4238      1.2780      7.0990     78.4830
      79      27       2     -0.8476      5.3210     21.1030     88.2390
      80      27       1      0.4238      5.9660     21.2820     88.9630
      81      27       1      0.4238      5.8840     21.4140     87.4560
      82      28       2     -0.8476     15.5220     21.3550     89.8310
      83      28       1      0.4238     14.7220     21.3090     90.2920
      84      28       1      0.4238     15.1730     21.5570     88.9180
      85      29       2     -0.8476      1.8390      4.2820     99.8140
      86      29       1      0.4238      1.3390      3.9250     99.0870
      87      29       1      0.4238      2.2750      3.5770    100.1380
      88      30       2     -0.8476      0.9850     15.6370     99.4760
      89      30       1      0.4238      1.1440     15.9250    100.3490
      90      30       1      0.4238      0.8120     16.4610     98.9750
      91      31       2     -0.8476     13.6430     14.2950    110.4790
      92      31       1      0.4238     13.4310     14.0530    111.3560
      93      31       1      0.4238     14.0230     15.1620    110.5190
      94      32       2     -0.8476     12.9210     21.0950    108.3430
      95      32       1      0.4238     12.8300     21.1210    109.3030
      96      32       1      0.4238     12.7810     22.0260    108.0630
      97      33       2     -0.8476     10.4550     18.1330    118.2070
      98      33       1      0.4238      9.5410     18.3610    118.3670
      99      33       1      0.4238     10.7050     17.4630    118.9480
     100      34       2     -0.8476      6.1080     24.4180     89.9590
     101      34       1      0.4238      5.3400     24.1220     89.5450
     102      34       1      0.4238      6.5370     24.8360     89.2080
     103      35       2     -0.8476     10.9260      8.1040     79.4040
     104      35       1      0.4238     11.2610      8.9010     78.9940
     105      35       1      0.4238     10.7480      8.3890     80.3080
     106      36       2     -0.8476      9.0690     26.1840     89.2110
     107      36       1      0.4238      9.6230     26.0420     90.0150
     108      36       1      0.4238      9.3050     27.0950     88.9270
     109      37       2     -0.8476      4.7690     23.2520     93.2650
     110      37       1      0.4238      4.6490     24.1800     92.8880
     111      37       1      0.4238      5.5610     23.2960     93.7760
     112      38       2     -0.8476      4.0990     14.1890    100.5830
     113      38       1      0.4238      3.9300     13.3760    101.0620
     114      38       1      0.4238      5.0610     14.2690    100.6610
     115      39       2     -0.8476     20.4520      2.4610    103.1640
     116      39       1      0.4238     20.9140      1.5790    103.0790
     117      39       1      0.4238     21.1670      3.1530    103.0130
     118      40       2     -0.8476      4.5780     21.3040    127.2660
     119      40       1      0.4238      5.0020     21.6090    128.0610
     120      40       1      0.4238      3.8930     20.5890    127.5980
     121      41       2     -0.8476     24.0170     11.5390    119.7840
     122      41       1      0.4238     23.1870     11.0720    119.8940
     123      41       1      0.4238     24.5100     11.0060    120.3610
     124      42       2     -0.8476     23.0720      6.7420     80.4780
     125      42       1      0.4238     22.2050      6.3450     80.8300
     126      42       1      0.4238     23.4510      6.1590     79.8580
     127      43       2     -0.8476     11.4260      5.8650     78.0180
     128      43       1      0.4238     11.6380      5.2690     78.7540
     129      43       1      0.4238     11.1570      6.7120     78.4930
     130      44       2     -0.8476      9.1470      4.8140     96.2780
     131      44       1      0.4238      8.4640      4.1110     96.3260
     132      44       1      0.4238      8.5430      5.5640     96.1530
     133      45       2     -0.8476      8.8810     17.8190    100.2750
     134      45       1      0.4238      8.0160     17.8400    100.6950
     135      45       1      0.4238      8.9310     18.7630    100.0090
     136      46       2     -0.8476      4.8420     11.8880    102.2710
     137      46       1      0.4238      5.3420     11.1970    102.6780
     138      46       1      0.4238      5.4030     12.6480    102.5780
     139      47       2     -0.8476      2.1700     16.1750    106.1660
     140      47       1      0.4238      2.6200     16.4500    106.9740
     141      47       1      0.4238      1.2630     16.0170    106.4680
     142      48       2     -0.8476     16.9700     28.5890     79.1810
     143      48       1      0.4238     17.3540     27.7300     79.4990
     144      48       1      0.4238     16.0330     28.3560     79.0880
     145      49       2     -0.8476      1.3020     25.5840     82.5230
     146      49       1      0.4238      1.0790     26.5650     82.5050
     147      49       1      0.4238      2.2950     25.6630     82.4450
     148      50       2     -0.8476      4.7990     18.2740     84.1690
     149      50       1      0.4238      3.8030     18.3030     84.3220
     150      50       1      0.4238      5.0330     19.2550     83.9240
     151      51       2     -0.8476      9.3920     13.4770     82.3210
     152      51       1      0.4238      8.6190     12.9780     82.4430
     153      51       1      0.4238      9.8420     13.0570     81.5360
     154      52       2     -0.8476      3.2080     21.4690    101.5040
     155      52       1      0.4238      3.0890     21.4450    100.5560
     156      52       1      0.4238      3.6230     22.3350    101.5490
     157      53       2     -0.8476      2.9280     13.2310    107.4870
     158      53       1      0.4238      3.2190     12.5730    106.8300
     159      53       1      0.4238      3.0820     14.0420    107.0080
     160      54       2     -0.8476     14.2730     18.0960    124.1140
     161      54       1      0.4238     13.3290     18.2240    124.2240
     162      54       1      0.4238     14.5430     17.6480    124.9750
     163      55       2     -0.8476      2.6740     18.9680     79.2120
     164      55       1      0.4238      3.1320     18.1280     79.2030
     165      55       1      0.4238      3.4310     19.6200     79.2810
     166      56       2     -0.8476      5.5480      9.5460    113.5780
     167      56       1      0.4238      5.5640     10.3890    114.0590
     168      56       1      0.4238      5.1220      9.7240    112.7430
     169      57       2     -0.8476     12.8900     27.8070    114.3600
     170      57       1      0.4238     12.3450     28.6130    114.2930
     171      57       1      0.4238     12.5450     27.4200    115.1750
     172      58       2     -0.8476     19.3700     21.9600    105.9710
     173      58       1      0.4238     18.4030     21.7880    105.7210
     174      58       1      0.4238     19.5740     21.1910    106.5910
     175      59       2     -0.8476      2.6290     21.9400    122.6200
     176      59       1      0.4238      3.0290     22.7830    122.9110
     177      59       1      0.4238      1.8900     21.9090    123.2340
     178      60       2     -0.8476     12.7650     22.3850    128.8860
     179      60       1      0.4238     13.1530     21.6270    128.3690
     180      60       1      0.4238     13.4640     23.0470    128.8650
     181      61       2     -0.8476     14.1120     18.1800     95.6220
     182      61       1      0.4238     14.2440     17.9140     96.5080
     183      61       1      0.4238     15.0260     18.3310     95.3470
     184      62       2     -0.8476      1.7870     24.6320    100.7370
     185      62       1      0.4238      1.7350     24.4240    101.7310
     186      62       1      0.4238      2.5880     25.2090    100.6390
     187      63       2     -0.8476      6.8650      3.1740    105.0590
     188      63       1      0.4238      6.2990      3.9370    104.8490
     189      63       1      0.4238      7.6750      3.5550    105.4030
     190      64       2     -0.8476      9.8390      7.2380    108.9010
     191      64       1      0.4238      9.4040      7.7360    109.6340
     192      64       1      0.4238      9.9040      6.3380    109.2220
     193      65       2     -0.8476     15.9140      7.0690     79.5010
     194      65       1      0.4238     16.7240      7.3580     79.1280
     195      65       1      0.4238     15.3080      7.2000     78.6710
     196      66       2     -0.8476      8.0710      4.2980    111.0950
     197      66       1      0.4238      7.4660      4.9040    110.4940
     198      66       1      0.4238      7.9460      4.5950    112.0280
     199      67       2     -0.8476     12.2960     26.6220    127.2880
     200      67       1      0.4238     12.3630     26.7910    126.3630
     201      67       1      0.4238     11.5190     26.0070    127.3340
     202      68       2     -0.8476     10.4350     13.3760     87.1910
     203      68       1      0.4238     10.2090     12.5980     86.6340
     204      68       1      0.4238      9.9720     13.2660     88.0180
     205      69       2     -0.8476      7.5600      2.5740     96.8300
     206      69       1      0.4238      8.1500      2.1190     97.5280
     207      69       1      0.4238      6.6480      2.2960     97.0350
     208      70       2     -0.8476     11.3950     19.8250    116.0640
     209      70       1      0.4238     10.8670     19.2680    116.6690
     210      70       1      0.4238     12.2860     19.4580    116.2290
     211      71       2     -0.8476     10.4570     15.2800    125.7330
     212      71       1      0.4238     10.5580     14.6750    124.9720
     213      71       1      0.4238      9.6070     15.6960    125.5180
     214      72       2     -0.8476     14.3910      2.4190     79.9920
     215      72       1      0.4238     14.6980      3.1810     80.4220
     216      72       1      0.4238     13.7120      2.0770     80.5780
     217      73       2     -0.8476      9.3230     11.0810     85.8270
     218      73       1      0.4238      8.6830     11.2530     85.1480
     219      73       1      0.4238      8.8890     10.5610     86.5340
     220      74       2     -0.8476      9.5780     12.4670     89.7340
     221      74       1      0.4238      8.7280     12.0610     89.9930
     222      74       1      0.4238     10.0120     12.6940     90.5600
     223      75       2     -0.8476      8.8690     17.6580    125.4360
     224      75       1      0.4238      8.4830     17.5210    124.5750
     225      75       1      0.4238      8.2640     18.3880    125.7850
     226      76       2     -0.8476     10.7820      1.1400     79.0530
     227      76       1      0.4238     10.8670      1.4590     80.0160
     228      76       1      0.4238     10.2430      1.8230     78.6670
     229      77       2     -0.8476      5.1180      8.6250     84.7770
     230      77       1      0.4238      5.9050      8.4190     85.3140
     231      77       1      0.4238      4.5020      8.9580     85.4220
     232      78       2     -0.8476      3.9030      5.1870     86.8150
     233      78       1      0.4238      3.6090      5.7720     86.0970
     234      78       1      0.4238      4.3170      4.4730     86.3270
     235      79       2     -0.8476      3.7760      7.9650     96.3250
     236      79       1      0.4238      3.2720      7.4910     96.9640
     237      79       1      0.4238      4.1040      8.7880     96.7530
     238      80       2     -0.8476      3.3910      5.5440    109.6130
     239      80       1      0.4238      2.7600      5.0200    110.1500
     240      80       1      0.4238      2.8030      6.0100    109.0200
     241      81       2     -0.8476      2.3400      8.7650    105.6620
     242      81       1      0.4238      2.1800      8.5440    104.7470
     243      81       1      0.4238      2.3340      9.7110    105.7330
     244      82       2     -0.8476     10.2000     13.5930    123.4440
     245      82       1      0.4238     11.0120     13.6550    123.0120
     246      82       1      0.4238     10.2810     12.6930    123.7550
     247      83       2     -0.8476      1.2370     18.4020    114.0900
     248      83       1      0.4238      0.9590     19.2920    114.3520
     249      83       1      0.4238      1.3660     18.4490    113.1470
     250      84       2     -0.8476     10.4780      8.3750    101.9480
     251      84       1      0.4238     10.0890      8.1260    102.8450
     252      84       1      0.4238     10.9360      9.1560    102.1870
     253      85       2     -0.8476     10.4270      4.6850    109.8050
     254      85       1      0.4238      9.5560      4.4350    110.2020
     255      85       1      0.4238     10.8600      3.8250    109.6650
     256      86       2     -0.8476     21.2650     16.7180    125.3720
     257      86       1      0.4238     21.3220     16.6580    124.3900
     258      86       1      0.4238     22.0950     16.3570    125.6990
     259      87       2     -0.8476      3.6190     10.8250     90.1580
     260      87       1      0.4238      4.0980     11.4000     89.5120
     261      87       1      0.4238      3.9400      9.9300     89.9620
     262      88       2     -0.8476      2.8780      6.3060     93.2530
     263      88       1      0.4238      2.6570      6.6610     94.0990
     264      88       1      0.4238      3.8010      6.5320     93.1260
     265      89       2     -0.8476      6.8820     22.7710     79.3190
     266      89       1      0.4238      6.0500     22.5350     78.8470
     267      89       1      0.4238      7.3590     21.9720     79.1920
     268      90       2     -0.8476      4.5170      4.4050     96.4180
     269      90       1      0.4238      3.6420      4.5420     96.1320
     270      90       1      0.4238      5.0820      5.2270     96.2950
     271      91       2     -0.8476      2.8440     20.9720     98.6310
     272      91       1      0.4238      3.4320     21.3210     97.9450
     273      91       1      0.4238      1.9670     21.0480     98.1380
     274      92       2     -0.8476     21.1130     14.1160     88.0660
     275      92       1      0.4238     21.2390     14.4590     87.2180
     276      92       1      0.4238     20.1190     14.3160     88.2500
     277      93       2     -0.8476     11.9920      6.0480    111.8460
     278      93       1      0.4238     11.6630      5.7040    111.0400
     279      93       1      0.4238     11.8860      6.9790    111.8590
     280      94       2     -0.8476      2.2870     10.0180    101.5150
     281      94       1      0.4238      2.6320     10.0750    100.6460
     282      94       1      0.4238      2.3600     10.9060    101.7870
     283      95       2     -0.8476      4.6270      2.3700    109.7610
     284      95       1      0.4238      4.3300      2.7720    108.9890
     285      95       1      0.4238      5.2300      3.0620    110.0980
     286      96       2     -0.8476     15.0260     11.0320     97.1370
     287      96       1      0.4238     14.6620     10.2330     97.5030
     288      96       1      0.4238     14.9660     10.9200     96.1940
     289      97       2     -0.8476     26.6240     17.0940     93.8070
     290      97       1      0.4238     27.4480     17.3640     94.2440
     291      97       1      0.4238     26.6370     17.5480     92.9000
     292      98       2     -0.8476      9.3760     28.9370     82.5790
     293      98       1      0.4238      9.7270     28.0770     82.3580
     294      98       1      0.4238      9.2900     28.8980     83.5330
     295      99       2     -0.8476      6.0730     15.3040     96.0900
     296      99       1      0.4238      6.4590     15.8390     96.8080
     297      99       1      0.4238      6.3690     15.9130     95.3310
     298     100       2     -0.8476     16.7830      7.8540     99.7810
     299     100       1      0.4238     16.1400      8.5580     99.4490
     300     100       1      0.4238     16.4730      7.0600     99.3790
     301     101       2     -0.8476     23.3720     18.9410     93.7880
     302     101       1      0.4238     22.7010     18.3640     93.3790
     303     101       1      0.4238     22.8350     19.4810     94.4250
     304     102       2     -0.8476     10.6050      1.3410    116.1110
     305     102       1      0.4238      9.9880      1.9500    115.6310
     306     102       1      0.4238     11.1320      1.9180    116.7050
     307     103       2     -0.8476      1.2420     21.1470    114.4240
     308     103       1      0.4238      0.6630     21.7020    113.8550
     309     103       1      0.4238      2.0320     20.9100    113.8370
     310     104       2     -0.8476      2.5070     13.7540    125.6530
     311     104       1      0.4238      2.1330     13.6330    124.7530
     312     104       1      0.4238      2.5820     14.7010    125.6550
     313     105       2     -0.8476      5.9580     13.5970     81.5890
     314     105       1      0.4238      6.1730     13.5190     80.6120
     315     105       1      0.4238      5.3990     14.3940     81.6570
     316     106       2     -0.8476     28.3490     10.3680     96.1730
     317     106       1      0.4238     27.6700     10.2200     96.8630
     318     106       1      0.4238     27.9030     10.9190     95.4890
     319     107       2     -0.8476      5.0520      1.8700     97.3300
     320     107       1      0.4238      4.7740      2.6940     96.9530
     321     107       1      0.4238      4.7350      1.3010     96.5710
     322     108       2     -0.8476      5.0940     25.7660     92.2000
     323     108       1      0.4238      4.1380     26.0000     92.1960
     324     108       1      0.4238      5.2580     25.3970     91.3120
     325     109       2     -0.8476     11.4660      0.9870    104.6640
     326     109       1      0.4238     11.3350      1.9230    104.4750
     327     109       1      0.4238     11.0580      0.5920    103.8830
     328     110       2     -0.8476      7.0800     13.4920    106.6910
     329     110       1      0.4238      6.9300     14.3860    106.9720
     330     110       1      0.4238      6.9290     12.9990    107.4810
     331     111       2     -0.8476      5.6600     14.2440     84.9540
     332     111       1      0.4238      6.5480     13.9220     85.2070
     333     111       1      0.4238      5.5080     14.9930     85.5280
     334     112       2     -0.8476      1.9880      8.2540    108.8380
     335     112       1      0.4238      1.2780      8.8230    109.1950
     336     112       1      0.4238      2.0430      8.5430    107.9210
     337     113       2     -0.8476      3.8480     27.5870    121.3690
     338     113       1      0.4238      4.3470     27.7550    122.2250
     339     113       1      0.4238      3.3130     26.8350    121.6610
     340     114       2     -0.8476     10.8900      6.8860     95.8280
     341     114       1      0.4238     11.1880      6.9840     96.7310
     342     114       1      0.4238     10.3440      6.0890     95.9210
     343     115       2     -0.8476      2.1780     22.4420     78.0350
     344     115       1      0.4238      1.7720     21.7800     78.5920
     345     115       1      0.4238      1.9980     23.3090     78.4930
     346     116       2     -0.8476     10.1300     22.0470     80.0000
     347     116       1      0.4238     10.1010     22.9710     79.6430
     348     116       1      0.4238      9.7870     21.4540     79.3120
     349     117       2     -0.8476      2.8440     11.0710     79.6240
     350     117       1      0.4238      2.6220     11.2530     80.5530
     351     117       1      0.4238      3.4470     10.2910     79.6170
     352     118       2     -0.8476      3.0820     28.1350     99.0630
     353     118       1      0.4238      2.3260     27.8340     99.6100
     354     118       1      0.4238      2.6410     28.3730     98.2270
     355     119       2     -0.8476      8.6230      8.3900    111.1050
     356     119       1      0.4238      8.7830      8.0390    112.0390
     357     119       1      0.4238      9.2290      9.1340    111.0000
     358     120       2     -0.8476     13.8850     10.2690    106.4530
     359     120       1      0.4238     14.3560     10.8910    107.0620
     360     120       1      0.4238     13.0990     10.0130    106.9650
     361     121       2     -0.8476      5.6540     10.3810    127.0960
     362     121       1      0.4238      6.5200     10.5530    126.5890
     363     121       1      0.4238      5.0640     10.7430    126.4100
     364     122       2     -0.8476      1.3230     24.1680     79.8880
     365     122       1      0.4238      2.1360     23.8160     80.3400
     366     122       1      0.4238      0.7530     24.4780     80.6400
     367     123       2     -0.8476     13.8540     15.2580    125.6470
     368     123       1      0.4238     14.8200     14.8640    125.6870
     369     123       1      0.4238     13.3300     14.7100    126.2170
     370     124       2     -0.8476     16.5730     24.2200    125.9150
     371     124       1      0.4238     17.2270     23.5330    126.1450
     372     124       1      0.4238     17.0370     24.8700    125.3610
     373     125       2     -0.8476     13.7200     24.9940     90.0920
     374     125       1      0.4238     13.3910     25.8830     90.2870
     375     125       1      0.4238     13.5560     24.4180     90.8530
     376     126       2     -0.8476      1.4950     28.5210     87.0150
     377     126       1      0.4238      0.5130     28.4810     87.0430
     378     126       1      0.4238      1.7980     27.6190     87.2630
     379     127       2     -0.8476      3.2100      6.6850     84.5400
     380     127       1      0.4238      2.9670      6.7360     83.5610
     381     127       1      0.4238      3.9100      7.3550     84.5800
     382     128       2     -0.8476      7.4110     19.9580     94.3350
     383     128       1      0.4238      8.0170     20.6180     93.9570
     384     128       1      0.4238      6.8150     19.6360     93.5880
     385     129       2     -0.8476     13.8360     24.9610    113.7850
     386     129       1      0.4238     13.7390     25.6640    114.4340
     387     129       1      0.4238     14.1930     24.2130    114.2440
     388     130       2     -0.8476      3.3340     15.5430    111.3740
     389     130       1      0.4238      2.7790     15.3070    112.1230
     390     130       1      0.4238      4.1070     15.0490    111.5030
     391     131       2     -0.8476     23.6240     21.1290    122.6240
     392     131       1      0.4238     22.6100     21.0860    122.3710
     393     131       1      0.4238     23.7950     20.1630    122.8290
     394     132       2     -0.8476      5.6790     21.3900    104.3870
     395     132       1      0.4238      5.1180     22.1060    104.6460
     396     132       1      0.4238      5.6960     20.7110    105.1070
     397     133       2     -0.8476      1.9290     22.9110    127.8560
     398     133       1      0.4238      2.1350     23.8280    127.6060
     399     133       1      0.4238      2.8590     22.5510    128.0250
     400     134       2     -0.8476     16.6920     22.9030     80.7820
     401     134       1      0.4238     16.8630     23.3810     81.6220
     402     134       1      0.4238     16.9270     23.5650     80.0860
     403     135       2     -0.8476     14.0400     22.7200     79.7480
     404     135       1      0.4238     13.4650     22.9750     80.4620
     405     135       1      0.4238     14.9280     22.9040     80.0740
     406     136       2     -0.8476      8.8890     18.6650    107.9920
     407     136       1      0.4238      8.4680     18.2700    107.2100