box     948
    4748 atoms
    4312 bonds
    5624 angles
    9300 dihedrals
       6 atom types
       3 bond types
       3 angle types
       2 dihedral types
      0.0000      0.0000 xlo xhi
      0.0000      0.0000 ylo yhi
      0.0000    948.3700 zlo zhi

 Masses

 1 1.007940
 2 15.999400
 3 12.0107

 Atoms

       1       1       2    -0.84760     4.66800    11.08200    16.90400
       2       1       1     0.42380     4.22400    11.45100    16.10100
       3       1       1     0.42380     4.09200    11.37900    17.62700
       4       2       2    -0.84760     7.03300     5.87600    21.89100
       5       2       1     0.42380     7.07800     6.22400    22.79800
       6       2       1     0.42380     7.59200     5.08800    21.96100
       7       3       2    -0.84760     5.56900     4.96000    30.88700
       8       3       1     0.42380     4.95900     4.16000    30.98000
       9       3       1     0.42380     4.99500     5.65500    30.42200
      10       4       2    -0.84760     1.97500    15.00700    39.56700
      11       4       1     0.42380     2.13700    14.26300    38.96600
      12       4       1     0.42380     1.61900    14.53900    40.36000
      13       5       2    -0.84760     7.38700     1.37400    51.85600
      14       5       1     0.42380     7.30600     1.10000    50.92400
      15       5       1     0.42380     8.15600     2.02600    51.77400
      16       6       2    -0.84760     1.92400     5.24900    51.23100
      17       6       1     0.42380     2.35300     4.71400    51.99100
      18       6       1     0.42380     1.66000     6.08600    51.71700
      19       7       2    -0.84760     6.18600    17.69600    13.07200
      20       7       1     0.42380     7.08300    17.97900    12.81600
      21       7       1     0.42380     6.33700    16.83200    13.49000
      22       8       2    -0.84760    15.43700     6.79400    31.55600
      23       8       1     0.42380    14.52400     6.31900    31.53200
      24       8       1     0.42380    15.98400     6.11300    31.97300
      25       9       2    -0.84760     9.32400    14.81100    22.33200
      26       9       1     0.42380     9.63300    14.34800    23.11200
      27       9       1     0.42380     9.50600    14.11600    21.64500
      28      10       2    -0.84760    12.46200    27.02600    32.37300
      29      10       1     0.42380    12.38600    27.69500    33.07600
      30      10       1     0.42380    11.61900    27.08000    31.93600
      31      11       2    -0.84760     9.43700     3.16900    52.65100
      32      11       1     0.42380    10.03900     3.40000    51.89300
      33      11       1     0.42380     9.27100     3.91200    53.14400
      34      12       2    -0.84760     4.78600    17.31800     2.31000
      35      12       1     0.42380     4.78100    16.38800     2.19600
      36      12       1     0.42380     5.52800    17.58000     1.78100
      37      13       2    -0.84760     7.20500     7.99100    19.44200
      38      13       1     0.42380     7.78200     8.34700    20.15200
      39      13       1     0.42380     6.30900     8.06200    19.80000
      40      14       2    -0.84760     3.75000     9.84400    10.62900
      41      14       1     0.42380     3.11000     9.29000    10.99800
      42      14       1     0.42380     3.16400    10.24500     9.96200
      43      15       2    -0.84760     4.93500    17.19500    23.10900
      44      15       1     0.42380     5.87000    17.03400    22.98500
      45      15       1     0.42380     4.65500    16.36700    23.58100
      46      16       2    -0.84760     3.99100    12.16200    28.86000
      47      16       1     0.42380     4.59400    11.96800    28.12900
      48      16       1     0.42380     3.41400    12.77500    28.43000
      49      17       2    -0.84760     5.24000     8.03700    28.08100
      50      17       1     0.42380     5.65600     8.83100    27.65800
      51      17       1     0.42380     4.78600     8.42800    28.81200
      52      18       2    -0.84760     8.17200     7.99900    39.58100
      53      18       1     0.42380     8.04000     8.55000    40.32700
      54      18       1     0.42380     7.24400     7.75600    39.26300
      55      19       2    -0.84760    11.67400     9.90900     5.98600
      56      19       1     0.42380    11.99800     9.87100     6.93200
      57      19       1     0.42380    10.74800    10.27000     6.07500
      58      20       2    -0.84760     1.00200     6.66700    15.59100
      59      20       1     0.42380     1.48300     6.99000    14.83000
      60      20       1     0.42380     1.60800     6.78100    16.34700
      61      21       2    -0.84760     8.96400     7.10700    30.45300
      62      21       1     0.42380     9.24200     6.20600    30.59900
      63      21       1     0.42380     9.42200     7.54500    31.23700
      64      22       2    -0.84760    25.17700    15.27100    39.12600
      65      22       1     0.42380    24.53400    14.94200    38.45900
      66      22       1     0.42380    26.06200    15.08200    38.68200
      67      23       2    -0.84760     5.82100    21.60300    12.23900
      68      23       1     0.42380     6.46600    21.78200    12.96300
      69      23       1     0.42380     6.38400    21.91400    11.45600
      70      24       2    -0.84760    16.02200    21.85500    13.83100
      71      24       1     0.42380    15.22200    21.80900    14.29200
      72      24       1     0.42380    15.67300    22.05700    12.91800
      73      25       2    -0.84760     2.33900     4.78200    23.81400
      74      25       1     0.42380     1.83900     4.42500    23.08700
      75      25       1     0.42380     2.77500     4.07700    24.13800
      76      26       2    -0.84760     1.48500    16.13700    23.47600
      77      26       1     0.42380     1.64400    16.42500    24.34900
      78      26       1     0.42380     1.31200    16.96100    22.97500
      79      27       2    -0.84760    14.14300    14.79500    34.47900
      80      27       1     0.42380    13.93100    14.55300    35.35600
      81      27       1     0.42380    14.52300    15.66200    34.51900
      82      28       2    -0.84760    13.42100    21.59500    32.34300
      83      28       1     0.42380    13.33000    21.62100    33.30300
      84      28       1     0.42380    13.28100    22.52600    32.06300
      85      29       2    -0.84760    10.95500    18.63300    42.20700
      86      29       1     0.42380    10.04100    18.86100    42.36700
      87      29       1     0.42380    11.20500    17.96300    42.94800
      88      30       2    -0.84760     6.60800    24.91800    13.95900
      89      30       1     0.42380     5.84000    24.62200    13.54500
      90      30       1     0.42380     7.03700    25.33600    13.20800
      91      31       2    -0.84760    11.42600     8.60400     3.40400
      92      31       1     0.42380    11.76100     9.40100     2.99400
      93      31       1     0.42380    11.24800     8.88900     4.30800
      94      32       2    -0.84760     9.56900    26.68400    13.21100
      95      32       1     0.42380    10.12300    26.54200    14.01500
      96      32       1     0.42380     9.80500    27.59500    12.92700
      97      33       2    -0.84760     5.26900    23.75200    17.26500
      98      33       1     0.42380     5.14900    24.68000    16.88800
      99      33       1     0.42380     6.06100    23.79600    17.77600
     100      34       2    -0.84760     4.59900    14.68900    24.58300
     101      34       1     0.42380     4.43000    13.87600    25.06200
     102      34       1     0.42380     5.56100    14.76900    24.66100
     103      35       2    -0.84760    20.95200     2.96100    27.16400
     104      35       1     0.42380    21.41400     2.07900    27.07900
     105      35       1     0.42380    21.66700     3.65300    27.01300
     106      36       2    -0.84760     5.07800    21.80400    51.26600
     107      36       1     0.42380     5.50200    22.10900    52.06100
     108      36       1     0.42380     4.39300    21.08900    51.59800
     109      37       2    -0.84760    24.51700    12.03900    43.78400
     110      37       1     0.42380    23.68700    11.57200    43.89400
     111      37       1     0.42380    25.01000    11.50600    44.36100
     112      38       2    -0.84760    11.92600     6.36500     2.01800
     113      38       1     0.42380    12.13800     5.76900     2.75400
     114      38       1     0.42380    11.65700     7.21200     2.49300
     115      39       2    -0.84760     9.64700     5.31400    20.27800
     116      39       1     0.42380     8.96400     4.61100    20.32600
     117      39       1     0.42380     9.04300     6.06400    20.15300
     118      40       2    -0.84760     9.38100    18.31900    24.27500
     119      40       1     0.42380     8.51600    18.34000    24.69500
     120      40       1     0.42380     9.43100    19.26300    24.00900
     121      41       2    -0.84760     5.34200    12.38800    26.27100
     122      41       1     0.42380     5.84200    11.69700    26.67800
     123      41       1     0.42380     5.90300    13.14800    26.57800
     124      42       2    -0.84760     2.67000    16.67500    30.16600
     125      42       1     0.42380     3.12000    16.95000    30.97400
     126      42       1     0.42380     1.76300    16.51700    30.46800
     127      43       2    -0.84760     1.80200    26.08400     6.52300
     128      43       1     0.42380     1.57900    27.06500     6.50500
     129      43       1     0.42380     2.79500    26.16300     6.44500
     130      44       2    -0.84760     5.29900    18.77400     8.16900
     131      44       1     0.42380     4.30300    18.80300     8.32200
     132      44       1     0.42380     5.53300    19.75500     7.92400
     133      45       2    -0.84760     9.89200    13.97700     6.32100
     134      45       1     0.42380     9.11900    13.47800     6.44300
     135      45       1     0.42380    10.34200    13.55700     5.53600
     136      46       2    -0.84760     3.70800    21.96900    25.50400
     137      46       1     0.42380     3.58900    21.94500    24.55600
     138      46       1     0.42380     4.12300    22.83500    25.54900
     139      47       2    -0.84760     3.42800    13.73100    31.48700
     140      47       1     0.42380     3.71900    13.07300    30.83000
     141      47       1     0.42380     3.58200    14.54200    31.00800
     142      48       2    -0.84760     3.17400    19.46800     3.21200
     143      48       1     0.42380     3.63200    18.62800     3.20300
     144      48       1     0.42380     3.93100    20.12000     3.28100
     145      49       2    -0.84760     6.04800    10.04600    37.57800
     146      49       1     0.42380     6.06400    10.88900    38.05900
     147      49       1     0.42380     5.62200    10.22400    36.74300
     148      50       2    -0.84760    19.87000    22.46000    29.97100
     149      50       1     0.42380    18.90300    22.28800    29.72100
     150      50       1     0.42380    20.07400    21.69100    30.59100
     151      51       2    -0.84760     3.12900    22.44000    46.62000
     152      51       1     0.42380     3.52900    23.28300    46.91100
     153      51       1     0.42380     2.39000    22.40900    47.23400
     154      52       2    -0.84760    13.26500    22.88500    52.88600
     155      52       1     0.42380    13.65300    22.12700    52.36900
     156      52       1     0.42380    13.96400    23.54700    52.86500
     157      53       2    -0.84760    14.61200    18.68000    19.62200
     158      53       1     0.42380    14.74400    18.41400    20.50800
     159      53       1     0.42380    15.52600    18.83100    19.34700
     160      54       2    -0.84760     2.28700    25.13200    24.73700
     161      54       1     0.42380     2.23500    24.92400    25.73100
     162      54       1     0.42380     3.08800    25.70900    24.63900
     163      55       2    -0.84760     2.43700    25.29000    55.45500
     164      55       1     0.42380     1.67600    25.66600    54.92800
     165      55       1     0.42380     3.04700    25.11600    54.79300
     166      56       2    -0.84760    10.33900     7.73800    32.90100
     167      56       1     0.42380     9.90400     8.23600    33.63400
     168      56       1     0.42380    10.40400     6.83800    33.22200
     169      57       2    -0.84760    16.41400     7.56900     3.50100
     170      57       1     0.42380    17.22400     7.85800     3.12800
     171      57       1     0.42380    15.80800     7.70000     2.67100
     172      58       2    -0.84760    12.79600    27.12200    51.28800
     173      58       1     0.42380    12.86300    27.29100    50.36300
     174      58       1     0.42380    12.01900    26.50700    51.33400
     175      59       2    -0.84760    10.93500    13.87600    11.19100
     176      59       1     0.42380    10.70900    13.09800    10.63400
     177      59       1     0.42380    10.47200    13.76600    12.01800
     178      60       2    -0.84760    10.95700    15.78000    49.73300
     179      60       1     0.42380    11.05800    15.17500    48.97200
     180      60       1     0.42380    10.10700    16.19600    49.51800
     181      61       2    -0.84760     2.92400     3.97700    53.56300
     182      61       1     0.42380     2.96300     4.49800    54.37900
     183      61       1     0.42380     2.53300     3.12600    53.86100
     184      62       2    -0.84760    14.89100     2.91900     3.99200
     185      62       1     0.42380    15.19800     3.68100     4.42200
     186      62       1     0.42380    14.21200     2.57700     4.57800
     187      63       2    -0.84760     9.82300    11.58100     9.82700
     188      63       1     0.42380     9.18300    11.75300     9.14800
     189      63       1     0.42380     9.38900    11.06100    10.53400
     190      64       2    -0.84760    10.07800    12.96700    13.73400
     191      64       1     0.42380     9.22800    12.56100    13.99300
     192      64       1     0.42380    10.51200    13.19400    14.56000
     193      65       2    -0.84760     9.36900    18.15800    49.43600
     194      65       1     0.42380     8.98300    18.02100    48.57500
     195      65       1     0.42380     8.76400    18.88800    49.78500
     196      66       2    -0.84760    11.28200     1.64000     3.05300
     197      66       1     0.42380    11.36700     1.95900     4.01600
     198      66       1     0.42380    10.74300     2.32300     2.66700
     199      67       2    -0.84760     5.61800     9.12500     8.77700
     200      67       1     0.42380     6.40500     8.91900     9.31400
     201      67       1     0.42380     5.00200     9.45800     9.42200
     202      68       2    -0.84760     4.40300     5.68700    10.81500
     203      68       1     0.42380     4.10900     6.27200    10.09700
     204      68       1     0.42380     4.81700     4.97300    10.32700
     205      69       2    -0.84760     4.27600     8.46500    20.32500
     206      69       1     0.42380     3.77200     7.99100    20.96400
     207      69       1     0.42380     4.60400     9.28800    20.75300
     208      70       2    -0.84760     3.89100     6.04400    33.61300
     209      70       1     0.42380     3.26000     5.52000    34.15000
     210      70       1     0.42380     3.30300     6.51000    33.02000
     211      71       2    -0.84760     2.84000     9.26500    29.66200
     212      71       1     0.42380     2.68000     9.04400    28.74700
     213      71       1     0.42380     2.83400    10.21100    29.73300
     214      72       2    -0.84760    10.97800     8.87500    25.94800
     215      72       1     0.42380    10.58900     8.62600    26.84500
     216      72       1     0.42380    11.43600     9.65600    26.18700
     217      73       2    -0.84760    21.47500    19.16200    54.73600
     218      73       1     0.42380    21.44200    20.18400    54.54200
     219      73       1     0.42380    20.84100    18.75700    54.11300
     220      74       2    -0.84760     4.11900    11.32500    14.15800
     221      74       1     0.42380     4.59800    11.90000    13.51200
     222      74       1     0.42380     4.44000    10.43000    13.96200
     223      75       2    -0.84760     3.37800     6.80600    17.25300
     224      75       1     0.42380     3.15700     7.16100    18.09900
     225      75       1     0.42380     4.30100     7.03200    17.12600
     226      76       2    -0.84760     7.38200    23.27100     3.31900
     227      76       1     0.42380     6.55000    23.03500     2.84700
     228      76       1     0.42380     7.85900    22.47200     3.19200
     229      77       2    -0.84760     5.01700     4.90500    20.41800
     230      77       1     0.42380     4.14200     5.04200    20.13200
     231      77       1     0.42380     5.58200     5.72700    20.29500
     232      78       2    -0.84760     3.34400    21.47200    22.63100
     233      78       1     0.42380     3.93200    21.82100    21.94500
     234      78       1     0.42380     2.46700    21.54800    22.13800
     235      79       2    -0.84760    21.61300    14.61600    12.06600
     236      79       1     0.42380    21.73900    14.95900    11.21800
     237      79       1     0.42380    20.61900    14.81600    12.25000
     238      80       2    -0.84760     2.78700    10.51800    25.51500
     239      80       1     0.42380     3.13200    10.57500    24.64600
     240      80       1     0.42380     2.86000    11.40600    25.78700
     241      81       2    -0.84760     5.12700     2.87000    33.76100
     242      81       1     0.42380     4.83000     3.27200    32.98900
     243      81       1     0.42380     5.73000     3.56200    34.09800
     244      82       2    -0.84760    15.52600    11.53200    21.13700
     245      82       1     0.42380    15.16200    10.73300    21.50300
     246      82       1     0.42380    15.46600    11.42000    20.19400
     247      83       2    -0.84760    27.12400    17.59400    17.80700
     248      83       1     0.42380    27.94800    17.86400    18.24400
     249      83       1     0.42380    27.13700    18.04800    16.90000
     250      84       2    -0.84760     6.57300    15.80400    20.09000
     251      84       1     0.42380     6.95900    16.33900    20.80800
     252      84       1     0.42380     6.86900    16.41300    19.33100
     253      85       2    -0.84760    17.28300     8.35400    23.78100
     254      85       1     0.42380    16.64000     9.05800    23.44900
     255      85       1     0.42380    16.97300     7.56000    23.37900
     256      86       2    -0.84760    23.87200    19.44100    17.78800
     257      86       1     0.42380    23.20100    18.86400    17.37900
     258      86       1     0.42380    23.33500    19.98100    18.42500
     259      87       2    -0.84760    11.10500     1.84100    40.11100
     260      87       1     0.42380    10.48800     2.45000    39.63100
     261      87       1     0.42380    11.63200     2.41800    40.70500
     262      88       2    -0.84760     8.94700    21.61100    54.96800
     263      88       1     0.42380     8.72000    21.19300    55.77400
     264      88       1     0.42380     9.54400    22.36100    55.24900
     265      89       2    -0.84760     3.00700    14.25400    49.65300
     266      89       1     0.42380     2.63300    14.13300    48.75300
     267      89       1     0.42380     3.08200    15.20100    49.65500
     268      90       2    -0.84760     6.45800    14.09700     5.58900
     269      90       1     0.42380     6.67300    14.01900     4.61200
     270      90       1     0.42380     5.89900    14.89400     5.65700
     271      91       2    -0.84760     5.59400    26.26600    16.20000
     272      91       1     0.42380     4.63800    26.50000    16.19600
     273      91       1     0.42380     5.75800    25.89700    15.31200
     274      92       2    -0.84760    11.96600     1.48700    28.66400
     275      92       1     0.42380    11.83500     2.42300    28.47500
     276      92       1     0.42380    11.55800     1.09200    27.88300
     277      93       2    -0.84760     7.58000    13.99200    30.69100
     278      93       1     0.42380     7.43000    14.88600    30.97200
     279      93       1     0.42380     7.42900    13.49900    31.48100
     280      94       2    -0.84760     6.16000    14.74400     8.95400
     281      94       1     0.42380     7.04800    14.42200     9.20700
     282      94       1     0.42380     6.00800    15.49300     9.52800
     283      95       2    -0.84760     2.48800     8.75400    32.83800
     284      95       1     0.42380     1.77800     9.32300    33.19500
     285      95       1     0.42380     2.54300     9.04300    31.92100
     286      96       2    -0.84760    11.39000     7.38600    19.82800
     287      96       1     0.42380    11.68800     7.48400    20.73100
     288      96       1     0.42380    10.84400     6.58900    19.92100
     289      97       2    -0.84760     2.67800    22.94200     2.03500
     290      97       1     0.42380     2.27200    22.28000     2.59200
     291      97       1     0.42380     2.49800    23.80900     2.49300
     292      98       2    -0.84760    10.63000    22.54700     4.00000
     293      98       1     0.42380    10.60100    23.47100     3.64300
     294      98       1     0.42380    10.28700    21.95400     3.31200
     295      99       2    -0.84760     3.34400    11.57100     3.62400
     296      99       1     0.42380     3.12200    11.75300     4.55300
     297      99       1     0.42380     3.94700    10.79100     3.61700
     298     100       2    -0.84760     9.12300     8.89000    35.10500
     299     100       1     0.42380     9.28300     8.53900    36.03900
     300     100       1     0.42380     9.72900     9.63400    35.00000
     301     101       2    -0.84760    14.38500    10.76900    30.45300
     302     101       1     0.42380    14.85600    11.39100    31.06200
     303     101       1     0.42380    13.59900    10.51300    30.96500
     304     102       2    -0.84760     6.15400    10.88100    51.09600
     305     102       1     0.42380     7.02000    11.05300    50.58900
     306     102       1     0.42380     5.56400    11.24300    50.41000
     307     103       2    -0.84760     1.82300    24.66800     3.88800
     308     103       1     0.42380     2.63600    24.31600     4.34000
     309     103       1     0.42380     1.25300    24.97800     4.64000
     310     104       2    -0.84760    14.35400    15.75800    49.64700
     311     104       1     0.42380    15.32000    15.36400    49.68700
     312     104       1     0.42380    13.83000    15.21000    50.21700
     313     105       2    -0.84760     4.61100    20.64100    55.29900
     314     105       1     0.42380     3.82500    21.16800    55.49600
     315     105       1     0.42380     5.25800    20.97200    55.93100
     316     106       2    -0.84760    17.07300    24.72000    49.91500
     317     106       1     0.42380    17.72700    24.03300    50.14500
     318     106       1     0.42380    17.53700    25.37000    49.36100
     319     107       2    -0.84760    14.22000    25.49400    14.09200
     320     107       1     0.42380    13.89100    26.38300    14.28700
     321     107       1     0.42380    14.05600    24.91800    14.85300
     322     108       2    -0.84760     7.91100    20.45800    18.33500
     323     108       1     0.42380     8.51700    21.11800    17.95700
     324     108       1     0.42380     7.31500    20.13600    17.58800
     325     109       2    -0.84760    14.33600    25.46100    37.78500
     326     109       1     0.42380    14.23900    26.16400    38.43400
     327     109       1     0.42380    14.69300    24.71300    38.24400
     328     110       2    -0.84760     3.83400    16.04300    35.37400
     329     110       1     0.42380     3.27900    15.80700    36.12300
     330     110       1     0.42380     4.60700    15.54900    35.50300
     331     111       2    -0.84760    24.12400    21.62900    46.62400
     332     111       1     0.42380    23.11000    21.58600    46.37100
     333     111       1     0.42380    24.29500    20.66300    46.82900
     334     112       2    -0.84760     6.17900    21.89000    28.38700
     335     112       1     0.42380     5.61800    22.60600    28.64600
     336     112       1     0.42380     6.19600    21.21100    29.10700
     337     113       2    -0.84760     2.42900    23.41100    51.85600
     338     113       1     0.42380     2.63500    24.32800    51.60600
     339     113       1     0.42380     3.35900    23.05100    52.02500
     340     114       2    -0.84760    17.19200    23.40300     4.78200
     341     114       1     0.42380    17.36300    23.88100     5.62200
     342     114       1     0.42380    17.42700    24.06500     4.08600
     343     115       2    -0.84760    14.54000    23.22000     3.74800
     344     115       1     0.42380    13.96500    23.47500     4.46200
     345     115       1     0.42380    15.42800    23.40400     4.07400
     346     116       2    -0.84760    11.43800    22.23700    42.00900
     347     116       1     0.42380    11.84600    21.74000    41.26800
     348     116       1     0.42380    10.57700    22.48000    41.71200
     349     117       2    -0.84760     4.27100    19.97400    44.18700
     350     117       1     0.42380     4.45800    19.07300    43.98800
     351     117       1     0.42380     4.32000    20.42900    43.31300
     352     118       2    -0.84760     9.18100    24.46500     8.63700
     353     118       1     0.42380    10.00700    24.93700     8.70300
     354     118       1     0.42380     8.51700    25.11700     8.31200
     355     119       2    -0.84760    11.92900    15.75000     6.71800
     356     119       1     0.42380    11.05000    15.54100     6.40800
     357     119       1     0.42380    12.40100    14.87900     6.71700
     358     120       2    -0.84760    20.65900    26.55200    18.44900
     359     120       1     0.42380    21.18200    27.34600    18.49900
     360     120       1     0.42380    19.73400    26.85800    18.38100
     361     121       2    -0.84760     3.08600    26.45200    19.19400
     362     121       1     0.42380     3.17400    26.92300    18.39400
     363     121       1     0.42380     2.27200    26.86900    19.60400
     364     122       2    -0.84760    16.41800    18.29100    50.56900
     365     122       1     0.42380    17.08400    18.05900    49.95600
     366     122       1     0.42380    16.98400    18.82200    51.13500
     367     123       2    -0.84760    17.50700    18.17000    22.00600
     368     123       1     0.42380    18.22600    18.00600    21.29500
     369     123       1     0.42380    17.03000    17.29700    22.08200
     370     124       2    -0.84760     4.79000    24.31800    27.06700
     371     124       1     0.42380     5.11100    24.68400    27.90100
     372     124       1     0.42380     3.83500    24.19600    27.24800
     373     125       2    -0.84760     5.23500    25.41000    53.37400
     374     125       1     0.42380     5.67500    26.13600    53.82000
     375     125       1     0.42380     4.57600    25.89100    52.76700
     376     126       2    -0.84760     1.74700     5.46900    11.57900
     377     126       1     0.42380     1.42600     4.56800    11.33900
     378     126       1     0.42380     2.50500     5.58500    10.99000
     379     127       2    -0.84760     3.68100     3.54800    42.15200
     380     127       1     0.42380     3.59800     2.59000    41.99400
     381     127       1     0.42380     4.37000     3.65700    42.87000
     382     128       2    -0.84760    11.70400     7.72100    16.88300
     383     128       1     0.42380    11.90100     7.91200    17.83600
     384     128       1     0.42380    11.12700     6.97200    16.99800
     385     129       2    -0.84760     3.18900     2.70600    25.87800
     386     129       1     0.42380     2.46400     2.09100    25.71000
     387     129       1     0.42380     3.12500     2.80500    26.90000
     388     130       2    -0.84760    12.76300    20.61400    10.95800
     389     130       1     0.42380    13.27900    21.40500    10.86600
     390     130       1     0.42380    13.43500    19.90500    10.90100
     391     131       2    -0.84760     8.86400    11.60300    29.95000
     392     131       1     0.42380     8.46900    12.27500    30.50700
     393     131       1     0.42380     8.15400    10.99200    29.78300
     394     132       2    -0.84760     5.64700     7.63200    38.53400
     395     132       1     0.42380     4.84200     7.17600    38.19800
     396     132       1     0.42380     5.63000     8.48600    38.09000
     397     133       2    -0.84760    11.89300     9.41600    31.31500
     398     133       1     0.42380    11.73900     8.78700    30.53800
     399     133       1     0.42380    11.36100     8.97100    31.97400
     400     134       2    -0.84760     8.08500    13.32300    45.90100
     401     134       1     0.42380     8.02800    12.51500    46.48000
     402     134       1     0.42380     8.99700    13.36200    45.64300
     403     135       2    -0.84760     8.02700     3.22400    14.41100
     404     135       1     0.42380     7.18500     3.80100    14.53500
     405     135       1     0.42380     7.69200     2.40300    14.74200
     406     136       2    -0.84760    18.81200     6.77100     6.87600