box     948
    9282 atoms
    7423 bonds
    7046 angles
    8892 dihedrals
       7 atom types
       2 bond types
       2 angle types
       1 dihedral types
      0.0000     29.8200 xlo xhi
      0.0000     29.4720 ylo yhi
    -20.0000    150.0000 zlo zhi

 Masses

  1  1.007940
  2 15.999400
  3  1.007940
  4 15.999400
  5 12.010700
  6 12.010700
  7 12.010700

 Atoms

       1       1       4    -0.84760     4.16800    10.58200    92.90400
       2       1       3     0.42380     3.72400    10.95100    92.10100
       3       1       3     0.42380     3.59200    10.87900    93.62700
       4       2       4    -0.84760     6.53300     5.37600    97.89100
       5       2       3     0.42380     6.57800     5.72400    98.79800
       6       2       3     0.42380     7.09200     4.58800    97.96100
       7       3       4    -0.84760     5.06900     4.46000   106.88700
       8       3       3     0.42380     4.45900     3.66000   106.98000
       9       3       3     0.42380     4.49500     5.15500   106.42200
      10       4       4    -0.84760     1.47500    14.50700   115.56700
      11       4       3     0.42380     1.63700    13.76300   114.96600
      12       4       3     0.42380     1.11900    14.03900   116.36000
      13       5       4    -0.84760     6.88700     0.87400   127.85600
      14       5       3     0.42380     6.80600     0.60000   126.92400
      15       5       3     0.42380     7.65600     1.52600   127.77400
      16       6       4    -0.84760     1.42400     4.74900   127.23100
      17       6       3     0.42380     1.85300     4.21400   127.99100
      18       6       3     0.42380     1.16000     5.58600   127.71700
      19       7       4    -0.84760     5.68600    17.19600    89.07200
      20       7       3     0.42380     6.58300    17.47900    88.81600
      21       7       3     0.42380     5.83700    16.33200    89.49000
      22       8       4    -0.84760    14.93700     6.29400   107.55600
      23       8       3     0.42380    14.02400     5.81900   107.53200
      24       8       3     0.42380    15.48400     5.61300   107.97300
      25       9       4    -0.84760     8.82400    14.31100    98.33200
      26       9       3     0.42380     9.13300    13.84800    99.11200
      27       9       3     0.42380     9.00600    13.61600    97.64500
      28      10       4    -0.84760    11.96200    26.52600   108.37300
      29      10       3     0.42380    11.88600    27.19500   109.07600
      30      10       3     0.42380    11.11900    26.58000   107.93600
      31      11       4    -0.84760     8.93700     2.66900   128.65100
      32      11       3     0.42380     9.53900     2.90000   127.89300
      33      11       3     0.42380     8.77100     3.41200   129.14400
      34      12       4    -0.84760     4.28600    16.81800    78.31000
      35      12       3     0.42380     4.28100    15.88800    78.19600
      36      12       3     0.42380     5.02800    17.08000    77.78100
      37      13       4    -0.84760     6.70500     7.49100    95.44200
      38      13       3     0.42380     7.28200     7.84700    96.15200
      39      13       3     0.42380     5.80900     7.56200    95.80000
      40      14       4    -0.84760    16.62600    15.20100    81.57700
      41      14       3     0.42380    16.57000    14.77200    80.72600
      42      14       3     0.42380    17.30500    15.95400    81.44500
      43      15       4    -0.84760     3.25000     9.34400    86.62900
      44      15       3     0.42380     2.61000     8.79000    86.99800
      45      15       3     0.42380     2.66400     9.74500    85.96200
      46      16       4    -0.84760     4.43500    16.69500    99.10900
      47      16       3     0.42380     5.37000    16.53400    98.98500
      48      16       3     0.42380     4.15500    15.86700    99.58100
      49      17       4    -0.84760     3.49100    11.66200   104.86000
      50      17       3     0.42380     4.09400    11.46800   104.12900
      51      17       3     0.42380     2.91400    12.27500   104.43000
      52      18       4    -0.84760     4.74000     7.53700   104.08100
      53      18       3     0.42380     5.15600     8.33100   103.65800
      54      18       3     0.42380     4.28600     7.92800   104.81200
      55      19       4    -0.84760     7.67200     7.49900   115.58100
      56      19       3     0.42380     7.54000     8.05000   116.32700
      57      19       3     0.42380     6.74400     7.25600   115.26300
      58      20       4    -0.84760    11.17400     9.40900    81.98600
      59      20       3     0.42380    11.49800     9.37100    82.93200
      60      20       3     0.42380    10.24800     9.77000    82.07500
      61      21       4    -0.84760     0.50200     6.16700    91.59100
      62      21       3     0.42380     0.98300     6.49000    90.83000
      63      21       3     0.42380     1.10800     6.28100    92.34700
      64      22       4    -0.84760    10.38200     9.65600    91.91600
      65      22       3     0.42380    10.07400    10.25300    92.59700
      66      22       3     0.42380    10.52100     8.76400    92.28900
      67      23       4    -0.84760     8.46400     6.60700   106.45300
      68      23       3     0.42380     8.74200     5.70600   106.59900
      69      23       3     0.42380     8.92200     7.04500   107.23700
      70      24       4    -0.84760    24.67700    14.77100   115.12600
      71      24       3     0.42380    24.03400    14.44200   114.45900
      72      24       3     0.42380    25.56200    14.58200   114.68200
      73      25       4    -0.84760     6.81600     5.78800   104.49500
      74      25       3     0.42380     7.14000     6.13100   105.36300
      75      25       3     0.42380     6.06300     6.35200   104.28000
      76      26       4    -0.84760     2.16100     7.18100    78.94300
      77      26       3     0.42380     2.44300     6.23900    78.98100
      78      26       3     0.42380     1.27800     7.09900    78.48300
      79      27       4    -0.84760     5.32100    21.10300    88.23900
      80      27       3     0.42380     5.96600    21.28200    88.96300
      81      27       3     0.42380     5.88400    21.41400    87.45600
      82      28       4    -0.84760    15.52200    21.35500    89.83100
      83      28       3     0.42380    14.72200    21.30900    90.29200
      84      28       3     0.42380    15.17300    21.55700    88.91800
      85      29       4    -0.84760     1.83900     4.28200    99.81400
      86      29       3     0.42380     1.33900     3.92500    99.08700
      87      29       3     0.42380     2.27500     3.57700   100.13800
      88      30       4    -0.84760     0.98500    15.63700    99.47600
      89      30       3     0.42380     1.14400    15.92500   100.34900
      90      30       3     0.42380     0.81200    16.46100    98.97500
      91      31       4    -0.84760    13.64300    14.29500   110.47900
      92      31       3     0.42380    13.43100    14.05300   111.35600
      93      31       3     0.42380    14.02300    15.16200   110.51900
      94      32       4    -0.84760    12.92100    21.09500   108.34300
      95      32       3     0.42380    12.83000    21.12100   109.30300
      96      32       3     0.42380    12.78100    22.02600   108.06300
      97      33       4    -0.84760    10.45500    18.13300   118.20700
      98      33       3     0.42380     9.54100    18.36100   118.36700
      99      33       3     0.42380    10.70500    17.46300   118.94800
     100      34       4    -0.84760     6.10800    24.41800    89.95900
     101      34       3     0.42380     5.34000    24.12200    89.54500
     102      34       3     0.42380     6.53700    24.83600    89.20800
     103      35       4    -0.84760    10.92600     8.10400    79.40400
     104      35       3     0.42380    11.26100     8.90100    78.99400
     105      35       3     0.42380    10.74800     8.38900    80.30800
     106      36       4    -0.84760     9.06900    26.18400    89.21100
     107      36       3     0.42380     9.62300    26.04200    90.01500
     108      36       3     0.42380     9.30500    27.09500    88.92700
     109      37       4    -0.84760     4.76900    23.25200    93.26500
     110      37       3     0.42380     4.64900    24.18000    92.88800
     111      37       3     0.42380     5.56100    23.29600    93.77600
     112      38       4    -0.84760     4.09900    14.18900   100.58300
     113      38       3     0.42380     3.93000    13.37600   101.06200
     114      38       3     0.42380     5.06100    14.26900   100.66100
     115      39       4    -0.84760    20.45200     2.46100   103.16400
     116      39       3     0.42380    20.91400     1.57900   103.07900
     117      39       3     0.42380    21.16700     3.15300   103.01300
     118      40       4    -0.84760     4.57800    21.30400   127.26600
     119      40       3     0.42380     5.00200    21.60900   128.06100
     120      40       3     0.42380     3.89300    20.58900   127.59800
     121      41       4    -0.84760    24.01700    11.53900   119.78400
     122      41       3     0.42380    23.18700    11.07200   119.89400
     123      41       3     0.42380    24.51000    11.00600   120.36100
     124      42       4    -0.84760    23.07200     6.74200    80.47800
     125      42       3     0.42380    22.20500     6.34500    80.83000
     126      42       3     0.42380    23.45100     6.15900    79.85800
     127      43       4    -0.84760    11.42600     5.86500    78.01800
     128      43       3     0.42380    11.63800     5.26900    78.75400
     129      43       3     0.42380    11.15700     6.71200    78.49300
     130      44       4    -0.84760     9.14700     4.81400    96.27800
     131      44       3     0.42380     8.46400     4.11100    96.32600
     132      44       3     0.42380     8.54300     5.56400    96.15300
     133      45       4    -0.84760     8.88100    17.81900   100.27500
     134      45       3     0.42380     8.01600    17.84000   100.69500
     135      45       3     0.42380     8.93100    18.76300   100.00900
     136      46       4    -0.84760     4.84200    11.88800   102.27100
     137      46       3     0.42380     5.34200    11.19700   102.67800
     138      46       3     0.42380     5.40300    12.64800   102.57800
     139      47       4    -0.84760     2.17000    16.17500   106.16600
     140      47       3     0.42380     2.62000    16.45000   106.97400
     141      47       3     0.42380     1.26300    16.01700   106.46800
     142      48       4    -0.84760    16.97000    28.58900    79.18100
     143      48       3     0.42380    17.35400    27.73000    79.49900
     144      48       3     0.42380    16.03300    28.35600    79.08800
     145      49       4    -0.84760     1.30200    25.58400    82.52300
     146      49       3     0.42380     1.07900    26.56500    82.50500
     147      49       3     0.42380     2.29500    25.66300    82.44500
     148      50       4    -0.84760     4.79900    18.27400    84.16900
     149      50       3     0.42380     3.80300    18.30300    84.32200
     150      50       3     0.42380     5.03300    19.25500    83.92400
     151      51       4    -0.84760     9.39200    13.47700    82.32100
     152      51       3     0.42380     8.61900    12.97800    82.44300
     153      51       3     0.42380     9.84200    13.05700    81.53600
     154      52       4    -0.84760     3.20800    21.46900   101.50400
     155      52       3     0.42380     3.08900    21.44500   100.55600
     156      52       3     0.42380     3.62300    22.33500   101.54900
     157      53       4    -0.84760     2.92800    13.23100   107.48700
     158      53       3     0.42380     3.21900    12.57300   106.83000
     159      53       3     0.42380     3.08200    14.04200   107.00800
     160      54       4    -0.84760    14.27300    18.09600   124.11400
     161      54       3     0.42380    13.32900    18.22400   124.22400
     162      54       3     0.42380    14.54300    17.64800   124.97500
     163      55       4    -0.84760     2.67400    18.96800    79.21200
     164      55       3     0.42380     3.13200    18.12800    79.20300
     165      55       3     0.42380     3.43100    19.62000    79.28100
     166      56       4    -0.84760     5.54800     9.54600   113.57800
     167      56       3     0.42380     5.56400    10.38900   114.05900
     168      56       3     0.42380     5.12200     9.72400   112.74300
     169      57       4    -0.84760    12.89000    27.80700   114.36000
     170      57       3     0.42380    12.34500    28.61300   114.29300
     171      57       3     0.42380    12.54500    27.42000   115.17500
     172      58       4    -0.84760    19.37000    21.96000   105.97100
     173      58       3     0.42380    18.40300    21.78800   105.72100
     174      58       3     0.42380    19.57400    21.19100   106.59100
     175      59       4    -0.84760     2.62900    21.94000   122.62000
     176      59       3     0.42380     3.02900    22.78300   122.91100
     177      59       3     0.42380     1.89000    21.90900   123.23400
     178      60       4    -0.84760    12.76500    22.38500   128.88600
     179      60       3     0.42380    13.15300    21.62700   128.36900
     180      60       3     0.42380    13.46400    23.04700   128.86501
     181      61       4    -0.84760    14.11200    18.18000    95.62200
     182      61       3     0.42380    14.24400    17.91400    96.50800
     183      61       3     0.42380    15.02600    18.33100    95.34700
     184      62       4    -0.84760     1.78700    24.63200   100.73700
     185      62       3     0.42380     1.73500    24.42400   101.73100
     186      62       3     0.42380     2.58800    25.20900   100.63900
     187      63       4    -0.84760     6.86500     3.17400   105.05900
     188      63       3     0.42380     6.29900     3.93700   104.84900
     189      63       3     0.42380     7.67500     3.55500   105.40300
     190      64       4    -0.84760     9.83900     7.23800   108.90100
     191      64       3     0.42380     9.40400     7.73600   109.63400
     192      64       3     0.42380     9.90400     6.33800   109.22200
     193      65       4    -0.84760    15.91400     7.06900    79.50100
     194      65       3     0.42380    16.72400     7.35800    79.12800
     195      65       3     0.42380    15.30800     7.20000    78.67100
     196      66       4    -0.84760     8.07100     4.29800   111.09500
     197      66       3     0.42380     7.46600     4.90400   110.49400
     198      66       3     0.42380     7.94600     4.59500   112.02800
     199      67       4    -0.84760    12.29600    26.62200   127.28800
     200      67       3     0.42380    12.36300    26.79100   126.36300
     201      67       3     0.42380    11.51900    26.00700   127.33400
     202      68       4    -0.84760    10.43500    13.37600    87.19100
     203      68       3     0.42380    10.20900    12.59800    86.63400
     204      68       3     0.42380     9.97200    13.26600    88.01800
     205      69       4    -0.84760     7.56000     2.57400    96.83000
     206      69       3     0.42380     8.15000     2.11900    97.52800
     207      69       3     0.42380     6.64800     2.29600    97.03500
     208      70       4    -0.84760    11.39500    19.82500   116.06400
     209      70       3     0.42380    10.86700    19.26800   116.66900
     210      70       3     0.42380    12.28600    19.45800   116.22900
     211      71       4    -0.84760    10.45700    15.28000   125.73300
     212      71       3     0.42380    10.55800    14.67500   124.97200
     213      71       3     0.42380     9.60700    15.69600   125.51800
     214      72       4    -0.84760    14.39100     2.41900    79.99200
     215      72       3     0.42380    14.69800     3.18100    80.42200
     216      72       3     0.42380    13.71200     2.07700    80.57800
     217      73       4    -0.84760     9.32300    11.08100    85.82700
     218      73       3     0.42380     8.68300    11.25300    85.14800
     219      73       3     0.42380     8.88900    10.56100    86.53400
     220      74       4    -0.84760     9.57800    12.46700    89.73400
     221      74       3     0.42380     8.72800    12.06100    89.99300
     222      74       3     0.42380    10.01200    12.69400    90.56000
     223      75       4    -0.84760     8.86900    17.65800   125.43600
     224      75       3     0.42380     8.48300    17.52100   124.57500
     225      75       3     0.42380     8.26400    18.38800   125.78500
     226      76       4    -0.84760    10.78200     1.14000    79.05300
     227      76       3     0.42380    10.86700     1.45900    80.01600
     228      76       3     0.42380    10.24300     1.82300    78.66700
     229      77       4    -0.84760     5.11800     8.62500    84.77700
     230      77       3     0.42380     5.90500     8.41900    85.31400
     231      77       3     0.42380     4.50200     8.95800    85.42200
     232      78       4    -0.84760     3.90300     5.18700    86.81500
     233      78       3     0.42380     3.60900     5.77200    86.09700
     234      78       3     0.42380     4.31700     4.47300    86.32700
     235      79       4    -0.84760     3.77600     7.96500    96.32500
     236      79       3     0.42380     3.27200     7.49100    96.96400
     237      79       3     0.42380     4.10400     8.78800    96.75300
     238      80       4    -0.84760     3.39100     5.54400   109.61300
     239      80       3     0.42380     2.76000     5.02000   110.15000
     240      80       3     0.42380     2.80300     6.01000   109.02000
     241      81       4    -0.84760     2.34000     8.76500   105.66200
     242      81       3     0.42380     2.18000     8.54400   104.74700
     243      81       3     0.42380     2.33400     9.71100   105.73300
     244      82       4    -0.84760    10.20000    13.59300   123.44400
     245      82       3     0.42380    11.01200    13.65500   123.01200
     246      82       3     0.42380    10.28100    12.69300   123.75500
     247      83       4    -0.84760     1.23700    18.40200   114.09000
     248      83       3     0.42380     0.95900    19.29200   114.35200
     249      83       3     0.42380     1.36600    18.44900   113.14700
     250      84       4    -0.84760    10.47800     8.37500   101.94800
     251      84       3     0.42380    10.08900     8.12600   102.84500
     252      84       3     0.42380    10.93600     9.15600   102.18700
     253      85       4    -0.84760    10.42700     4.68500   109.80500
     254      85       3     0.42380     9.55600     4.43500   110.20200
     255      85       3     0.42380    10.86000     3.82500   109.66500
     256      86       4    -0.84760    21.26500    16.71800   125.37200
     257      86       3     0.42380    21.32200    16.65800   124.39000
     258      86       3     0.42380    22.09500    16.35700   125.69900
     259      87       4    -0.84760     3.61900    10.82500    90.15800
     260      87       3     0.42380     4.09800    11.40000    89.51200
     261      87       3     0.42380     3.94000     9.93000    89.96200
     262      88       4    -0.84760     2.87800     6.30600    93.25300
     263      88       3     0.42380     2.65700     6.66100    94.09900
     264      88       3     0.42380     3.80100     6.53200    93.12600
     265      89       4    -0.84760     6.88200    22.77100    79.31900
     266      89       3     0.42380     6.05000    22.53500    78.84700
     267      89       3     0.42380     7.35900    21.97200    79.19200
     268      90       4    -0.84760     4.51700     4.40500    96.41800
     269      90       3     0.42380     3.64200     4.54200    96.13200
     270      90       3     0.42380     5.08200     5.22700    96.29500
     271      91       4    -0.84760     2.84400    20.97200    98.63100
     272      91       3     0.42380     3.43200    21.32100    97.94500
     273      91       3     0.42380     1.96700    21.04800    98.13800
     274      92       4    -0.84760    21.11300    14.11600    88.06600
     275      92       3     0.42380    21.23900    14.45900    87.21800
     276      92       3     0.42380    20.11900    14.31600    88.25000
     277      93       4    -0.84760    11.99200     6.04800   111.84600
     278      93       3     0.42380    11.66300     5.70400   111.04000
     279      93       3     0.42380    11.88600     6.97900   111.85900
     280      94       4    -0.84760     2.28700    10.01800   101.51500
     281      94       3     0.42380     2.63200    10.07500   100.64600
     282      94       3     0.42380     2.36000    10.90600   101.78700
     283      95       4    -0.84760     4.62700     2.37000   109.76100
     284      95       3     0.42380     4.33000     2.77200   108.98900
     285      95       3     0.42380     5.23000     3.06200   110.09800
     286      96       4    -0.84760    15.02600    11.03200    97.13700
     287      96       3     0.42380    14.66200    10.23300    97.50300
     288      96       3     0.42380    14.96600    10.92000    96.19400
     289      97       4    -0.84760    26.62400    17.09400    93.80700
     290      97       3     0.42380    27.44800    17.36400    94.24400
     291      97       3     0.42380    26.63700    17.54800    92.90000
     292      98       4    -0.84760     9.37600    28.93700    82.57900
     293      98       3     0.42380     9.72700    28.07700    82.35800
     294      98       3     0.42380     9.29000    28.89800    83.53300
     295      99       4    -0.84760     6.07300    15.30400    96.09000
     296      99       3     0.42380     6.45900    15.83900    96.80800
     297      99       3     0.42380     6.36900    15.91300    95.33100
     298     100       4    -0.84760    16.78300     7.85400    99.78100
     299     100       3     0.42380    16.14000     8.55800    99.44900
     300     100       3     0.42380    16.47300     7.06000    99.37900
     301     101       4    -0.84760    23.37200    18.94100    93.78800
     302     101       3     0.42380    22.70100    18.36400    93.37900
     303     101       3     0.42380    22.83500    19.48100    94.42500
     304     102       4    -0.84760    10.60500     1.34100   116.11100
     305     102       3     0.42380     9.98800     1.95000   115.63100
     306     102       3     0.42380    11.13200     1.91800   116.70500
     307     103       4    -0.84760     1.24200    21.14700   114.42400
     308     103       3     0.42380     0.66300    21.70200   113.85500
     309     103       3     0.42380     2.03200    20.91000   113.83700
     310     104       4    -0.84760     2.50700    13.75400   125.65300
     311     104       3     0.42380     2.13300    13.63300   124.75300
     312     104       3     0.42380     2.58200    14.70100   125.65500
     313     105       4    -0.84760     5.95800    13.59700    81.58900
     314     105       3     0.42380     6.17300    13.51900    80.61200
     315     105       3     0.42380     5.39900    14.39400    81.65700
     316     106       4    -0.84760    28.34900    10.36800    96.17300
     317     106       3     0.42380    27.67000    10.22000    96.86300
     318     106       3     0.42380    27.90300    10.91900    95.48900
     319     107       4    -0.84760     5.05200     1.87000    97.33000
     320     107       3     0.42380     4.77400     2.69400    96.95300
     321     107       3     0.42380     4.73500     1.30100    96.57100
     322     108       4    -0.84760     5.09400    25.76600    92.20000
     323     108       3     0.42380     4.13800    26.00000    92.19600
     324     108       3     0.42380     5.25800    25.39700    91.31200
     325     109       4    -0.84760    11.46600     0.98700   104.66400
     326     109       3     0.42380    11.33500     1.92300   104.47500
     327     109       3     0.42380    11.05800     0.59200   103.88300
     328     110       4    -0.84760     7.08000    13.49200   106.69100
     329     110       3     0.42380     6.93000    14.38600   106.97200
     330     110       3     0.42380     6.92900    12.99900   107.48100
     331     111       4    -0.84760     5.66000    14.24400    84.95400
     332     111       3     0.42380     6.54800    13.92200    85.20700
     333     111       3     0.42380     5.50800    14.99300    85.52800
     334     112       4    -0.84760     1.98800     8.25400   108.83800
     335     112       3     0.42380     1.27800     8.82300   109.19500
     336     112       3     0.42380     2.04300     8.54300   107.92100
     337     113       4    -0.84760     3.84800    27.58700   121.36900
     338     113       3     0.42380     4.34700    27.75500   122.22500
     339     113       3     0.42380     3.31300    26.83500   121.66100
     340     114       4    -0.84760    10.89000     6.88600    95.82800
     341     114       3     0.42380    11.18800     6.98400    96.73100
     342     114       3     0.42380    10.34400     6.08900    95.92100
     343     115       4    -0.84760     2.17800    22.44200    78.03500
     344     115       3     0.42380     1.77200    21.78000    78.59200
     345     115       3     0.42380     1.99800    23.30900    78.49300
     346     116       4    -0.84760    10.13000    22.04700    80.00000
     347     116       3     0.42380    10.10100    22.97100    79.64300
     348     116       3     0.42380     9.78700    21.45400    79.31200
     349     117       4    -0.84760     2.84400    11.07100    79.62400
     350     117       3     0.42380     2.62200    11.25300    80.55300
     351     117       3     0.42380     3.44700    10.29100    79.61700
     352     118       4    -0.84760     3.08200    28.13500    99.06300
     353     118       3     0.42380     2.32600    27.83400    99.61000
     354     118       3     0.42380     2.64100    28.37300    98.22700
     355     119       4    -0.84760     8.62300     8.39000   111.10500
     356     119       3     0.42380     8.78300     8.03900   112.03900
     357     119       3     0.42380     9.22900     9.13400   111.00000
     358     120       4    -0.84760    13.88500    10.26900   106.45300
     359     120       3     0.42380    14.35600    10.89100   107.06200
     360     120       3     0.42380    13.09900    10.01300   106.96500
     361     121       4    -0.84760     5.65400    10.38100   127.09600
     362     121       3     0.42380     6.52000    10.55300   126.58900
     363     121       3     0.42380     5.06400    10.74300   126.41000
     364     122       4    -0.84760     1.32300    24.16800    79.88800
     365     122       3     0.42380     2.13600    23.81600    80.34000
     366     122       3     0.42380     0.75300    24.47800    80.64000
     367     123       4    -0.84760    13.85400    15.25800   125.64700
     368     123       3     0.42380    14.82000    14.86400   125.68700
     369     123       3     0.42380    13.33000    14.71000   126.21700
     370     124       4    -0.84760    16.57300    24.22000   125.91500
     371     124       3     0.42380    17.22700    23.53300   126.14500
     372     124       3     0.42380    17.03700    24.87000   125.36100
     373     125       4    -0.84760    13.72000    24.99400    90.09200
     374     125       3     0.42380    13.39100    25.88300    90.28700
     375     125       3     0.42380    13.55600    24.41800    90.85300
     376     126       4    -0.84760     1.49500    28.52100    87.01500
     377     126       3     0.42380     0.51300    28.48100    87.04300
     378     126       3     0.42380     1.79800    27.61900    87.26300
     379     127       4    -0.84760     3.21000     6.68500    84.54000
     380     127       3     0.42380     2.96700     6.73600    83.56100
     381     127       3     0.42380     3.91000     7.35500    84.58000
     382     128       4    -0.84760     7.41100    19.95800    94.33500
     383     128       3     0.42380     8.01700    20.61800    93.95700
     384     128       3     0.42380     6.81500    19.63600    93.58800
     385     129       4    -0.84760    13.83600    24.96100   113.78500
     386     129       3     0.42380    13.73900    25.66400   114.43400
     387     129       3     0.42380    14.19300    24.21300   114.24400
     388     130       4    -0.84760     3.33400    15.54300   111.37400
     389     130       3     0.42380     2.77900    15.30700   112.12300
     390     130       3     0.42380     4.10700    15.04900   111.50300
     391     131       4    -0.84760    23.62400    21.12900   122.62400
     392     131       3     0.42380    22.61000    21.08600   122.37100
     393     131       3     0.42380    23.79500    20.16300   122.82900
     394     132       4    -0.84760     5.67900    21.39000   104.38700
     395     132       3     0.42380     5.11800    22.10600   104.64600
     396     132       3     0.42380     5.69600    20.71100   105.10700
     397     133       4    -0.84760     1.92900    22.91100   127.85600
     398     133       3     0.42380     2.13500    23.82800   127.60600
     399     133       3     0.42380     2.85900    22.55100   128.02499
     400     134       4    -0.84760    16.69200    22.90300    80.78200
     401     134       3     0.42380    16.86300    23.38100    81.62200
     402     134       3     0.42380    16.92700    23.56500    80.08600
     403     135       4    -0.84760    14.04000    22.72000    79.74800
     404     135       3     0.42380    13.46500    22.97500    80.46200
     405     135       3     0.42380    14.92800    22.90400    80.07400