box     948
    8166 atoms
    6240 bonds
    5262 angles
    5694 dihedrals
      14 atom types
       4 bond types
       4 angle types
       3 dihedral types
      0.0000     29.8200 xlo xhi
      0.0000     29.4720 ylo yhi
    -20.0000    150.0000 zlo zhi

 Masses

  1  1.007940
  2 15.999400
  3 22.989771
  4 35.452999
  5 12.010700
  6 12.010700
  7  1.007940
  8 15.999400
  9 12.010700
 10 22.989771
 11 35.452999
 12 15.999400
 13  1.007940
 14 12.010700

 Atoms

       1       1       4    -0.84760     4.16800    10.58200    76.40400
       2       1       3     0.42380     3.72400    10.95100    75.60100
       3       1       3     0.42380     3.59200    10.87900    77.12700
       4       2       4    -0.84760     6.53300     5.37600    81.39100
       5       2       3     0.42380     6.57800     5.72400    82.29800
       6       2       3     0.42380     7.09200     4.58800    81.46100
       7       3       4    -0.84760     5.06900     4.46000    90.38700
       8       3       3     0.42380     4.45900     3.66000    90.48000
       9       3       3     0.42380     4.49500     5.15500    89.92200
      10       4       4    -0.84760     1.47500    14.50700    99.06700
      11       4       3     0.42380     1.63700    13.76300    98.46600
      12       4       3     0.42380     1.11900    14.03900    99.86000
      13       5       4    -0.84760     5.68600    17.19600    72.57200
      14       5       3     0.42380     6.58300    17.47900    72.31600
      15       5       3     0.42380     5.83700    16.33200    72.99000
      16       6       4    -0.84760    14.93700     6.29400    91.05600
      17       6       3     0.42380    14.02400     5.81900    91.03200
      18       6       3     0.42380    15.48400     5.61300    91.47300
      19       7       4    -0.84760     8.82400    14.31100    81.83200
      20       7       3     0.42380     9.13300    13.84800    82.61200
      21       7       3     0.42380     9.00600    13.61600    81.14500
      22       8       4    -0.84760    11.96200    26.52600    91.87300
      23       8       3     0.42380    11.88600    27.19500    92.57600
      24       8       3     0.42380    11.11900    26.58000    91.43600
      25       9       4    -0.84760     4.28600    16.81800    61.81000
      26       9       3     0.42380     4.28100    15.88800    61.69600
      27       9       3     0.42380     5.02800    17.08000    61.28100
      28      10       4    -0.84760     6.70500     7.49100    78.94200
      29      10       3     0.42380     7.28200     7.84700    79.65200
      30      10       3     0.42380     5.80900     7.56200    79.30000
      31      11       4    -0.84760    16.62600    15.20100    65.07700
      32      11       3     0.42380    16.57000    14.77200    64.22600
      33      11       3     0.42380    17.30500    15.95400    64.94500
      34      12       4    -0.84760     3.25000     9.34400    70.12900
      35      12       3     0.42380     2.61000     8.79000    70.49800
      36      12       3     0.42380     2.66400     9.74500    69.46200
      37      13       4    -0.84760     4.43500    16.69500    82.60900
      38      13       3     0.42380     5.37000    16.53400    82.48500
      39      13       3     0.42380     4.15500    15.86700    83.08100
      40      14       4    -0.84760     3.49100    11.66200    88.36000
      41      14       3     0.42380     4.09400    11.46800    87.62900
      42      14       3     0.42380     2.91400    12.27500    87.93000
      43      15       4    -0.84760     4.74000     7.53700    87.58100
      44      15       3     0.42380     5.15600     8.33100    87.15800
      45      15       3     0.42380     4.28600     7.92800    88.31200
      46      16       4    -0.84760     7.67200     7.49900    99.08100
      47      16       3     0.42380     7.54000     8.05000    99.82700
      48      16       3     0.42380     6.74400     7.25600    98.76300
      49      17       4    -0.84760    11.17400     9.40900    65.48600
      50      17       3     0.42380    11.49800     9.37100    66.43200
      51      17       3     0.42380    10.24800     9.77000    65.57500
      52      18       4    -0.84760     0.50200     6.16700    75.09100
      53      18       3     0.42380     0.98300     6.49000    74.33000
      54      18       3     0.42380     1.10800     6.28100    75.84700
      55      19       4    -0.84760    10.38200     9.65600    75.41600
      56      19       3     0.42380    10.07400    10.25300    76.09700
      57      19       3     0.42380    10.52100     8.76400    75.78900
      58      20       4    -0.84760     8.46400     6.60700    89.95300
      59      20       3     0.42380     8.74200     5.70600    90.09900
      60      20       3     0.42380     8.92200     7.04500    90.73700
      61      21       4    -0.84760    24.67700    14.77100    98.62600
      62      21       3     0.42380    24.03400    14.44200    97.95900
      63      21       3     0.42380    25.56200    14.58200    98.18200
      64      22       4    -0.84760     6.81600     5.78800    87.99500
      65      22       3     0.42380     7.14000     6.13100    88.86300
      66      22       3     0.42380     6.06300     6.35200    87.78000
      67      23       4    -0.84760     2.16100     7.18100    62.44300
      68      23       3     0.42380     2.44300     6.23900    62.48100
      69      23       3     0.42380     1.27800     7.09900    61.98300
      70      24       4    -0.84760     5.32100    21.10300    71.73900
      71      24       3     0.42380     5.96600    21.28200    72.46300
      72      24       3     0.42380     5.88400    21.41400    70.95600
      73      25       4    -0.84760    15.52200    21.35500    73.33100
      74      25       3     0.42380    14.72200    21.30900    73.79200
      75      25       3     0.42380    15.17300    21.55700    72.41800
      76      26       4    -0.84760     1.83900     4.28200    83.31400
      77      26       3     0.42380     1.33900     3.92500    82.58700
      78      26       3     0.42380     2.27500     3.57700    83.63800
      79      27       4    -0.84760     0.98500    15.63700    82.97600
      80      27       3     0.42380     1.14400    15.92500    83.84900
      81      27       3     0.42380     0.81200    16.46100    82.47500
      82      28       4    -0.84760    13.64300    14.29500    93.97900
      83      28       3     0.42380    13.43100    14.05300    94.85600
      84      28       3     0.42380    14.02300    15.16200    94.01900
      85      29       4    -0.84760    12.92100    21.09500    91.84300
      86      29       3     0.42380    12.83000    21.12100    92.80300
      87      29       3     0.42380    12.78100    22.02600    91.56300
      88      30       4    -0.84760    10.45500    18.13300   101.70700
      89      30       3     0.42380     9.54100    18.36100   101.86700
      90      30       3     0.42380    10.70500    17.46300   102.44800
      91      31       4    -0.84760     6.10800    24.41800    73.45900
      92      31       3     0.42380     5.34000    24.12200    73.04500
      93      31       3     0.42380     6.53700    24.83600    72.70800
      94      32       4    -0.84760    10.92600     8.10400    62.90400
      95      32       3     0.42380    11.26100     8.90100    62.49400
      96      32       3     0.42380    10.74800     8.38900    63.80800
      97      33       4    -0.84760     9.06900    26.18400    72.71100
      98      33       3     0.42380     9.62300    26.04200    73.51500
      99      33       3     0.42380     9.30500    27.09500    72.42700
     100      34       4    -0.84760     4.76900    23.25200    76.76500
     101      34       3     0.42380     4.64900    24.18000    76.38800
     102      34       3     0.42380     5.56100    23.29600    77.27600
     103      35       4    -0.84760     4.09900    14.18900    84.08300
     104      35       3     0.42380     3.93000    13.37600    84.56200
     105      35       3     0.42380     5.06100    14.26900    84.16100
     106      36       4    -0.84760    20.45200     2.46100    86.66400
     107      36       3     0.42380    20.91400     1.57900    86.57900
     108      36       3     0.42380    21.16700     3.15300    86.51300
     109      37       4    -0.84760    24.01700    11.53900   103.28400
     110      37       3     0.42380    23.18700    11.07200   103.39400
     111      37       3     0.42380    24.51000    11.00600   103.86100
     112      38       4    -0.84760    23.07200     6.74200    63.97800
     113      38       3     0.42380    22.20500     6.34500    64.33000
     114      38       3     0.42380    23.45100     6.15900    63.35800
     115      39       4    -0.84760    11.42600     5.86500    61.51800
     116      39       3     0.42380    11.63800     5.26900    62.25400
     117      39       3     0.42380    11.15700     6.71200    61.99300
     118      40       4    -0.84760     9.14700     4.81400    79.77800
     119      40       3     0.42380     8.46400     4.11100    79.82600
     120      40       3     0.42380     8.54300     5.56400    79.65300
     121      41       4    -0.84760     8.88100    17.81900    83.77500
     122      41       3     0.42380     8.01600    17.84000    84.19500
     123      41       3     0.42380     8.93100    18.76300    83.50900
     124      42       4    -0.84760     4.84200    11.88800    85.77100
     125      42       3     0.42380     5.34200    11.19700    86.17800
     126      42       3     0.42380     5.40300    12.64800    86.07800
     127      43       4    -0.84760     2.17000    16.17500    89.66600
     128      43       3     0.42380     2.62000    16.45000    90.47400
     129      43       3     0.42380     1.26300    16.01700    89.96800
     130      44       4    -0.84760    16.97000    28.58900    62.68100
     131      44       3     0.42380    17.35400    27.73000    62.99900
     132      44       3     0.42380    16.03300    28.35600    62.58800
     133      45       4    -0.84760     1.30200    25.58400    66.02300
     134      45       3     0.42380     1.07900    26.56500    66.00500
     135      45       3     0.42380     2.29500    25.66300    65.94500
     136      46       4    -0.84760     4.79900    18.27400    67.66900
     137      46       3     0.42380     3.80300    18.30300    67.82200
     138      46       3     0.42380     5.03300    19.25500    67.42400
     139      47       4    -0.84760     9.39200    13.47700    65.82100
     140      47       3     0.42380     8.61900    12.97800    65.94300
     141      47       3     0.42380     9.84200    13.05700    65.03600
     142      48       4    -0.84760     3.20800    21.46900    85.00400
     143      48       3     0.42380     3.08900    21.44500    84.05600
     144      48       3     0.42380     3.62300    22.33500    85.04900
     145      49       4    -0.84760     2.92800    13.23100    90.98700
     146      49       3     0.42380     3.21900    12.57300    90.33000
     147      49       3     0.42380     3.08200    14.04200    90.50800
     148      50       4    -0.84760    14.27300    18.09600   107.61400
     149      50       3     0.42380    13.32900    18.22400   107.72400
     150      50       3     0.42380    14.54300    17.64800   108.47500
     151      51       4    -0.84760     2.67400    18.96800    62.71200
     152      51       3     0.42380     3.13200    18.12800    62.70300
     153      51       3     0.42380     3.43100    19.62000    62.78100
     154      52       4    -0.84760     5.54800     9.54600    97.07800
     155      52       3     0.42380     5.56400    10.38900    97.55900
     156      52       3     0.42380     5.12200     9.72400    96.24300
     157      53       4    -0.84760    12.89000    27.80700    97.86000
     158      53       3     0.42380    12.34500    28.61300    97.79300
     159      53       3     0.42380    12.54500    27.42000    98.67500
     160      54       4    -0.84760    19.37000    21.96000    89.47100
     161      54       3     0.42380    18.40300    21.78800    89.22100
     162      54       3     0.42380    19.57400    21.19100    90.09100
     163      55       4    -0.84760     2.62900    21.94000   106.12000
     164      55       3     0.42380     3.02900    22.78300   106.41100
     165      55       3     0.42380     1.89000    21.90900   106.73400
     166      56       4    -0.84760    14.11200    18.18000    79.12200
     167      56       3     0.42380    14.24400    17.91400    80.00800
     168      56       3     0.42380    15.02600    18.33100    78.84700
     169      57       4    -0.84760     1.78700    24.63200    84.23700
     170      57       3     0.42380     1.73500    24.42400    85.23100
     171      57       3     0.42380     2.58800    25.20900    84.13900
     172      58       4    -0.84760     6.86500     3.17400    88.55900
     173      58       3     0.42380     6.29900     3.93700    88.34900
     174      58       3     0.42380     7.67500     3.55500    88.90300
     175      59       4    -0.84760     9.83900     7.23800    92.40100
     176      59       3     0.42380     9.40400     7.73600    93.13400
     177      59       3     0.42380     9.90400     6.33800    92.72200
     178      60       4    -0.84760    15.91400     7.06900    63.00100
     179      60       3     0.42380    16.72400     7.35800    62.62800
     180      60       3     0.42380    15.30800     7.20000    62.17100
     181      61       4    -0.84760     8.07100     4.29800    94.59500
     182      61       3     0.42380     7.46600     4.90400    93.99400
     183      61       3     0.42380     7.94600     4.59500    95.52800
     184      62       4    -0.84760    10.43500    13.37600    70.69100
     185      62       3     0.42380    10.20900    12.59800    70.13400
     186      62       3     0.42380     9.97200    13.26600    71.51800
     187      63       4    -0.84760     7.56000     2.57400    80.33000
     188      63       3     0.42380     8.15000     2.11900    81.02800
     189      63       3     0.42380     6.64800     2.29600    80.53500
     190      64       4    -0.84760    11.39500    19.82500    99.56400
     191      64       3     0.42380    10.86700    19.26800   100.16900
     192      64       3     0.42380    12.28600    19.45800    99.72900
     193      65       4    -0.84760    10.45700    15.28000   109.23300
     194      65       3     0.42380    10.55800    14.67500   108.47200
     195      65       3     0.42380     9.60700    15.69600   109.01800
     196      66       4    -0.84760    14.39100     2.41900    63.49200
     197      66       3     0.42380    14.69800     3.18100    63.92200
     198      66       3     0.42380    13.71200     2.07700    64.07800
     199      67       4    -0.84760     9.32300    11.08100    69.32700
     200      67       3     0.42380     8.68300    11.25300    68.64800
     201      67       3     0.42380     8.88900    10.56100    70.03400
     202      68       4    -0.84760     9.57800    12.46700    73.23400
     203      68       3     0.42380     8.72800    12.06100    73.49300
     204      68       3     0.42380    10.01200    12.69400    74.06000
     205      69       4    -0.84760     8.86900    17.65800   108.93600
     206      69       3     0.42380     8.48300    17.52100   108.07500
     207      69       3     0.42380     8.26400    18.38800   109.28500
     208      70       4    -0.84760    10.78200     1.14000    62.55300
     209      70       3     0.42380    10.86700     1.45900    63.51600
     210      70       3     0.42380    10.24300     1.82300    62.16700
     211      71       4    -0.84760     5.11800     8.62500    68.27700
     212      71       3     0.42380     5.90500     8.41900    68.81400
     213      71       3     0.42380     4.50200     8.95800    68.92200
     214      72       4    -0.84760     3.90300     5.18700    70.31500
     215      72       3     0.42380     3.60900     5.77200    69.59700
     216      72       3     0.42380     4.31700     4.47300    69.82700
     217      73       4    -0.84760     3.77600     7.96500    79.82500
     218      73       3     0.42380     3.27200     7.49100    80.46400
     219      73       3     0.42380     4.10400     8.78800    80.25300
     220      74       4    -0.84760     3.39100     5.54400    93.11300
     221      74       3     0.42380     2.76000     5.02000    93.65000
     222      74       3     0.42380     2.80300     6.01000    92.52000
     223      75       4    -0.84760     2.34000     8.76500    89.16200
     224      75       3     0.42380     2.18000     8.54400    88.24700
     225      75       3     0.42380     2.33400     9.71100    89.23300
     226      76       4    -0.84760    10.20000    13.59300   106.94400
     227      76       3     0.42380    11.01200    13.65500   106.51200
     228      76       3     0.42380    10.28100    12.69300   107.25500
     229      77       4    -0.84760     1.23700    18.40200    97.59000
     230      77       3     0.42380     0.95900    19.29200    97.85200
     231      77       3     0.42380     1.36600    18.44900    96.64700
     232      78       4    -0.84760    10.47800     8.37500    85.44800
     233      78       3     0.42380    10.08900     8.12600    86.34500
     234      78       3     0.42380    10.93600     9.15600    85.68700
     235      79       4    -0.84760    10.42700     4.68500    93.30500
     236      79       3     0.42380     9.55600     4.43500    93.70200
     237      79       3     0.42380    10.86000     3.82500    93.16500
     238      80       4    -0.84760    21.26500    16.71800   108.87200
     239      80       3     0.42380    21.32200    16.65800   107.89000
     240      80       3     0.42380    22.09500    16.35700   109.19900
     241      81       4    -0.84760     3.61900    10.82500    73.65800
     242      81       3     0.42380     4.09800    11.40000    73.01200
     243      81       3     0.42380     3.94000     9.93000    73.46200
     244      82       4    -0.84760     2.87800     6.30600    76.75300
     245      82       3     0.42380     2.65700     6.66100    77.59900
     246      82       3     0.42380     3.80100     6.53200    76.62600
     247      83       4    -0.84760     6.88200    22.77100    62.81900
     248      83       3     0.42380     6.05000    22.53500    62.34700
     249      83       3     0.42380     7.35900    21.97200    62.69200
     250      84       4    -0.84760     4.51700     4.40500    79.91800
     251      84       3     0.42380     3.64200     4.54200    79.63200
     252      84       3     0.42380     5.08200     5.22700    79.79500
     253      85       4    -0.84760     2.84400    20.97200    82.13100
     254      85       3     0.42380     3.43200    21.32100    81.44500
     255      85       3     0.42380     1.96700    21.04800    81.63800
     256      86       4    -0.84760    21.11300    14.11600    71.56600
     257      86       3     0.42380    21.23900    14.45900    70.71800
     258      86       3     0.42380    20.11900    14.31600    71.75000
     259      87       4    -0.84760    11.99200     6.04800    95.34600
     260      87       3     0.42380    11.66300     5.70400    94.54000
     261      87       3     0.42380    11.88600     6.97900    95.35900
     262      88       4    -0.84760     2.28700    10.01800    85.01500
     263      88       3     0.42380     2.63200    10.07500    84.14600
     264      88       3     0.42380     2.36000    10.90600    85.28700
     265      89       4    -0.84760     4.62700     2.37000    93.26100
     266      89       3     0.42380     4.33000     2.77200    92.48900
     267      89       3     0.42380     5.23000     3.06200    93.59800
     268      90       4    -0.84760    15.02600    11.03200    80.63700
     269      90       3     0.42380    14.66200    10.23300    81.00300
     270      90       3     0.42380    14.96600    10.92000    79.69400
     271      91       4    -0.84760    26.62400    17.09400    77.30700
     272      91       3     0.42380    27.44800    17.36400    77.74400
     273      91       3     0.42380    26.63700    17.54800    76.40000
     274      92       4    -0.84760     9.37600    28.93700    66.07900
     275      92       3     0.42380     9.72700    28.07700    65.85800
     276      92       3     0.42380     9.29000    28.89800    67.03300
     277      93       4    -0.84760     6.07300    15.30400    79.59000
     278      93       3     0.42380     6.45900    15.83900    80.30800
     279      93       3     0.42380     6.36900    15.91300    78.83100
     280      94       4    -0.84760    16.78300     7.85400    83.28100
     281      94       3     0.42380    16.14000     8.55800    82.94900
     282      94       3     0.42380    16.47300     7.06000    82.87900
     283      95       4    -0.84760    23.37200    18.94100    77.28800
     284      95       3     0.42380    22.70100    18.36400    76.87900
     285      95       3     0.42380    22.83500    19.48100    77.92500
     286      96       4    -0.84760    10.60500     1.34100    99.61100
     287      96       3     0.42380     9.98800     1.95000    99.13100
     288      96       3     0.42380    11.13200     1.91800   100.20500
     289      97       4    -0.84760     1.24200    21.14700    97.92400
     290      97       3     0.42380     0.66300    21.70200    97.35500
     291      97       3     0.42380     2.03200    20.91000    97.33700
     292      98       4    -0.84760     2.50700    13.75400   109.15300
     293      98       3     0.42380     2.13300    13.63300   108.25300
     294      98       3     0.42380     2.58200    14.70100   109.15500
     295      99       4    -0.84760     5.95800    13.59700    65.08900
     296      99       3     0.42380     6.17300    13.51900    64.11200
     297      99       3     0.42380     5.39900    14.39400    65.15700
     298     100       4    -0.84760    28.34900    10.36800    79.67300
     299     100       3     0.42380    27.67000    10.22000    80.36300
     300     100       3     0.42380    27.90300    10.91900    78.98900
     301     101       4    -0.84760     5.05200     1.87000    80.83000
     302     101       3     0.42380     4.77400     2.69400    80.45300
     303     101       3     0.42380     4.73500     1.30100    80.07100
     304     102       4    -0.84760     5.09400    25.76600    75.70000
     305     102       3     0.42380     4.13800    26.00000    75.69600
     306     102       3     0.42380     5.25800    25.39700    74.81200
     307     103       4    -0.84760    11.46600     0.98700    88.16400
     308     103       3     0.42380    11.33500     1.92300    87.97500
     309     103       3     0.42380    11.05800     0.59200    87.38300
     310     104       4    -0.84760     7.08000    13.49200    90.19100
     311     104       3     0.42380     6.93000    14.38600    90.47200
     312     104       3     0.42380     6.92900    12.99900    90.98100
     313     105       4    -0.84760     5.66000    14.24400    68.45400
     314     105       3     0.42380     6.54800    13.92200    68.70700
     315     105       3     0.42380     5.50800    14.99300    69.02800
     316     106       4    -0.84760     1.98800     8.25400    92.33800
     317     106       3     0.42380     1.27800     8.82300    92.69500
     318     106       3     0.42380     2.04300     8.54300    91.42100
     319     107       4    -0.84760     3.84800    27.58700   104.86900
     320     107       3     0.42380     4.34700    27.75500   105.72500
     321     107       3     0.42380     3.31300    26.83500   105.16100
     322     108       4    -0.84760    10.89000     6.88600    79.32800
     323     108       3     0.42380    11.18800     6.98400    80.23100
     324     108       3     0.42380    10.34400     6.08900    79.42100
     325     109       4    -0.84760     2.17800    22.44200    61.53500
     326     109       3     0.42380     1.77200    21.78000    62.09200
     327     109       3     0.42380     1.99800    23.30900    61.99300
     328     110       4    -0.84760    10.13000    22.04700    63.50000
     329     110       3     0.42380    10.10100    22.97100    63.14300
     330     110       3     0.42380     9.78700    21.45400    62.81200
     331     111       4    -0.84760     2.84400    11.07100    63.12400
     332     111       3     0.42380     2.62200    11.25300    64.05300
     333     111       3     0.42380     3.44700    10.29100    63.11700
     334     112       4    -0.84760     3.08200    28.13500    82.56300
     335     112       3     0.42380     2.32600    27.83400    83.11000
     336     112       3     0.42380     2.64100    28.37300    81.72700
     337     113       4    -0.84760     8.62300     8.39000    94.60500
     338     113       3     0.42380     8.78300     8.03900    95.53900
     339     113       3     0.42380     9.22900     9.13400    94.50000
     340     114       4    -0.84760    13.88500    10.26900    89.95300
     341     114       3     0.42380    14.35600    10.89100    90.56200
     342     114       3     0.42380    13.09900    10.01300    90.46500
     343     115       4    -0.84760     1.32300    24.16800    63.38800
     344     115       3     0.42380     2.13600    23.81600    63.84000
     345     115       3     0.42380     0.75300    24.47800    64.14000
     346     116       4    -0.84760    13.72000    24.99400    73.59200
     347     116       3     0.42380    13.39100    25.88300    73.78700
     348     116       3     0.42380    13.55600    24.41800    74.35300
     349     117       4    -0.84760     1.49500    28.52100    70.51500
     350     117       3     0.42380     0.51300    28.48100    70.54300
     351     117       3     0.42380     1.79800    27.61900    70.76300
     352     118       4    -0.84760     3.21000     6.68500    68.04000
     353     118       3     0.42380     2.96700     6.73600    67.06100
     354     118       3     0.42380     3.91000     7.35500    68.08000
     355     119       4    -0.84760     7.41100    19.95800    77.83500
     356     119       3     0.42380     8.01700    20.61800    77.45700
     357     119       3     0.42380     6.81500    19.63600    77.08800
     358     120       4    -0.84760    13.83600    24.96100    97.28500
     359     120       3     0.42380    13.73900    25.66400    97.93400
     360     120       3     0.42380    14.19300    24.21300    97.74400
     361     121       4    -0.84760     3.33400    15.54300    94.87400
     362     121       3     0.42380     2.77900    15.30700    95.62300
     363     121       3     0.42380     4.10700    15.04900    95.00300
     364     122       4    -0.84760    23.62400    21.12900   106.12400
     365     122       3     0.42380    22.61000    21.08600   105.87100
     366     122       3     0.42380    23.79500    20.16300   106.32900
     367     123       4    -0.84760     5.67900    21.39000    87.88700
     368     123       3     0.42380     5.11800    22.10600    88.14600
     369     123       3     0.42380     5.69600    20.71100    88.60700
     370     124       4    -0.84760    16.69200    22.90300    64.28200
     371     124       3     0.42380    16.86300    23.38100    65.12200
     372     124       3     0.42380    16.92700    23.56500    63.58600
     373     125       4    -0.84760    14.04000    22.72000    63.24800
     374     125       3     0.42380    13.46500    22.97500    63.96200
     375     125       3     0.42380    14.92800    22.90400    63.57400
     376     126       4    -0.84760     8.88900    18.66500    91.49200
     377     126       3     0.42380     8.46800    18.27000    90.71000
     378     126       3     0.42380     8.91700    17.95100    92.14100
     379     127       4    -0.84760    10.93800    21.73700   101.50900
     380     127       3     0.42380    11.34600    21.24000   100.76800
     381     127       3     0.42380    10.07700    21.98000   101.21200
     382     128       4    -0.84760    15.82600    27.46800    91.90200
     383     128       3     0.42380    14.95300    27.23600    91.42800
     384     128       3     0.42380    15.56800    28.12000    92.53300
     385     129       4    -0.84760     3.77100    19.47400   103.68700
     386     129       3     0.42380     3.95800    18.57300   103.48800
     387     129       3     0.42380     3.82000    19.92900   102.81300
     388     130       4    -0.84760     8.68100    23.96500    68.13700
     389     130       3     0.42380     9.50700    24.43700    68.20300
     390     130       3     0.42380     8.01700    24.61700    67.81200
     391     131       4    -0.84760    11.42900    15.25000    66.21800
     392     131       3     0.42380    10.55000    15.04100    65.90800
     393     131       3     0.42380    11.90100    14.37900    66.21700
     394     132       4    -0.84760    20.15900    26.05200    77.94900
     395     132       3     0.42380    20.68200    26.84600    77.99900
     396     132       3     0.42380    19.23400    26.35800    77.88100
     397     133       4    -0.84760     2.58600    25.95200    78.69400
     398     133       3     0.42380     2.67400    26.42300    77.89400
     399     133       3     0.42380     1.77200    26.36900    79.10400
     400     134       4    -0.84760     2.18300    26.16700    86.83200
     401     134       3     0.42380     3.08000    26.40700    86.92600
     402     134       3     0.42380     1.98500    25.72700    87.62600
     403     135       4    -0.84760    23.83100    22.11900    78.56900
     404     135       3     0.42380    23.63700    23.01600    78.95600