box     948
    7490 atoms
    5676 bonds
    5016 angles
    5796 dihedrals
      18 impropers 
      
      14 atom types
       4 bond types
       4 angle types
       3 dihedral types
       1 improper types
       
      0.0000     29.8200 xlo xhi
      0.0000     29.4720 ylo yhi
    -20.0000    150.0000 zlo zhi

 Masses

  1  1.007940
  2 15.999400
  3 22.989771
  4 35.452999
  5 12.010700
  6 12.010700
  7  1.007940
  8 15.999400
  9 12.010700
 10 22.989771
 11 35.452999
 12 15.999400
 13  1.007940
 14 12.010700

 Atoms

       1       1       8    -0.84760     3.66800    10.08200    78.90400
       2       1       7     0.42380     3.22400    10.45100    78.10100
       3       1       7     0.42380     3.09200    10.37900    79.62700
       4       2       8    -0.84760     6.03300     4.87600    83.89100
       5       2       7     0.42380     6.07800     5.22400    84.79800
       6       2       7     0.42380     6.59200     4.08800    83.96100
       7       3       8    -0.84760     0.97500    14.00700   101.56700
       8       3       7     0.42380     1.13700    13.26300   100.96600
       9       3       7     0.42380     0.61900    13.53900   102.36000
      10       4       8    -0.84760     5.18600    16.69600    75.07200
      11       4       7     0.42380     6.08300    16.97900    74.81600
      12       4       7     0.42380     5.33700    15.83200    75.49000
      13       5       8    -0.84760    14.43700     5.79400    93.55600
      14       5       7     0.42380    13.52400     5.31900    93.53200
      15       5       7     0.42380    14.98400     5.11300    93.97300
      16       6       8    -0.84760     8.32400    13.81100    84.33200
      17       6       7     0.42380     8.63300    13.34800    85.11200
      18       6       7     0.42380     8.50600    13.11600    83.64500
      19       7       8    -0.84760    11.46200    26.02600    94.37300
      20       7       7     0.42380    11.38600    26.69500    95.07600
      21       7       7     0.42380    10.61900    26.08000    93.93600
      22       8       8    -0.84760     3.78600    16.31800    64.31000
      23       8       7     0.42380     3.78100    15.38800    64.19600
      24       8       7     0.42380     4.52800    16.58000    63.78100
      25       9       8    -0.84760    16.12600    14.70100    67.57700
      26       9       7     0.42380    16.07000    14.27200    66.72600
      27       9       7     0.42380    16.80500    15.45400    67.44500
      28      10       8    -0.84760     2.75000     8.84400    72.62900
      29      10       7     0.42380     2.11000     8.29000    72.99800
      30      10       7     0.42380     2.16400     9.24500    71.96200
      31      11       8    -0.84760     4.24000     7.03700    90.08100
      32      11       7     0.42380     4.65600     7.83100    89.65800
      33      11       7     0.42380     3.78600     7.42800    90.81200
      34      12       8    -0.84760     7.17200     6.99900   101.58100
      35      12       7     0.42380     7.04000     7.55000   102.32700
      36      12       7     0.42380     6.24400     6.75600   101.26300
      37      13       8    -0.84760    10.67400     8.90900    67.98600
      38      13       7     0.42380    10.99800     8.87100    68.93200
      39      13       7     0.42380     9.74800     9.27000    68.07500
      40      14       8    -0.84760     0.00200     5.66700    77.59100
      41      14       7     0.42380     0.48300     5.99000    76.83000
      42      14       7     0.42380     0.60800     5.78100    78.34700
      43      15       8    -0.84760     9.88200     9.15600    77.91600
      44      15       7     0.42380     9.57400     9.75300    78.59700
      45      15       7     0.42380    10.02100     8.26400    78.28900
      46      16       8    -0.84760     7.96400     6.10700    92.45300
      47      16       7     0.42380     8.24200     5.20600    92.59900
      48      16       7     0.42380     8.42200     6.54500    93.23700
      49      17       8    -0.84760    24.17700    14.27100   101.12600
      50      17       7     0.42380    23.53400    13.94200   100.45900
      51      17       7     0.42380    25.06200    14.08200   100.68200
      52      18       8    -0.84760     6.31600     5.28800    90.49500
      53      18       7     0.42380     6.64000     5.63100    91.36300
      54      18       7     0.42380     5.56300     5.85200    90.28000
      55      19       8    -0.84760     1.66100     6.68100    64.94300
      56      19       7     0.42380     1.94300     5.73900    64.98100
      57      19       7     0.42380     0.77800     6.59900    64.48300
      58      20       8    -0.84760     4.82100    20.60300    74.23900
      59      20       7     0.42380     5.46600    20.78200    74.96300
      60      20       7     0.42380     5.38400    20.91400    73.45600
      61      21       8    -0.84760    15.02200    20.85500    75.83100
      62      21       7     0.42380    14.22200    20.80900    76.29200
      63      21       7     0.42380    14.67300    21.05700    74.91800
      64      22       8    -0.84760     1.33900     3.78200    85.81400
      65      22       7     0.42380     0.83900     3.42500    85.08700
      66      22       7     0.42380     1.77500     3.07700    86.13800
      67      23       8    -0.84760     0.48500    15.13700    85.47600
      68      23       7     0.42380     0.64400    15.42500    86.34900
      69      23       7     0.42380     0.31200    15.96100    84.97500
      70      24       8    -0.84760    13.14300    13.79500    96.47900
      71      24       7     0.42380    12.93100    13.55300    97.35600
      72      24       7     0.42380    13.52300    14.66200    96.51900
      73      25       8    -0.84760    12.42100    20.59500    94.34300
      74      25       7     0.42380    12.33000    20.62100    95.30300
      75      25       7     0.42380    12.28100    21.52600    94.06300
      76      26       8    -0.84760     5.60800    23.91800    75.95900
      77      26       7     0.42380     4.84000    23.62200    75.54500
      78      26       7     0.42380     6.03700    24.33600    75.20800
      79      27       8    -0.84760    10.42600     7.60400    65.40400
      80      27       7     0.42380    10.76100     8.40100    64.99400
      81      27       7     0.42380    10.24800     7.88900    66.30800
      82      28       8    -0.84760     8.56900    25.68400    75.21100
      83      28       7     0.42380     9.12300    25.54200    76.01500
      84      28       7     0.42380     8.80500    26.59500    74.92700
      85      29       8    -0.84760     4.26900    22.75200    79.26500
      86      29       7     0.42380     4.14900    23.68000    78.88800
      87      29       7     0.42380     5.06100    22.79600    79.77600
      88      30       8    -0.84760     3.59900    13.68900    86.58300
      89      30       7     0.42380     3.43000    12.87600    87.06200
      90      30       7     0.42380     4.56100    13.76900    86.66100
      91      31       8    -0.84760    19.95200     1.96100    89.16400
      92      31       7     0.42380    20.41400     1.07900    89.07900
      93      31       7     0.42380    20.66700     2.65300    89.01300
      94      32       8    -0.84760    23.51700    11.03900   105.78400
      95      32       7     0.42380    22.68700    10.57200   105.89400
      96      32       7     0.42380    24.01000    10.50600   106.36100
      97      33       8    -0.84760    22.57200     6.24200    66.47800
      98      33       7     0.42380    21.70500     5.84500    66.83000
      99      33       7     0.42380    22.95100     5.65900    65.85800
     100      34       8    -0.84760    10.92600     5.36500    64.01800
     101      34       7     0.42380    11.13800     4.76900    64.75400
     102      34       7     0.42380    10.65700     6.21200    64.49300
     103      35       8    -0.84760     8.64700     4.31400    82.27800
     104      35       7     0.42380     7.96400     3.61100    82.32600
     105      35       7     0.42380     8.04300     5.06400    82.15300
     106      36       8    -0.84760     8.38100    17.31900    86.27500
     107      36       7     0.42380     7.51600    17.34000    86.69500
     108      36       7     0.42380     8.43100    18.26300    86.00900
     109      37       8    -0.84760     4.34200    11.38800    88.27100
     110      37       7     0.42380     4.84200    10.69700    88.67800
     111      37       7     0.42380     4.90300    12.14800    88.57800
     112      38       8    -0.84760     1.67000    15.67500    92.16600
     113      38       7     0.42380     2.12000    15.95000    92.97400
     114      38       7     0.42380     0.76300    15.51700    92.46800
     115      39       8    -0.84760    16.47000    28.08900    65.18100
     116      39       7     0.42380    16.85400    27.23000    65.49900
     117      39       7     0.42380    15.53300    27.85600    65.08800
     118      40       8    -0.84760     0.80200    25.08400    68.52300
     119      40       7     0.42380     0.57900    26.06500    68.50500
     120      40       7     0.42380     1.79500    25.16300    68.44500
     121      41       8    -0.84760     4.29900    17.77400    70.16900
     122      41       7     0.42380     3.30300    17.80300    70.32200
     123      41       7     0.42380     4.53300    18.75500    69.92400
     124      42       8    -0.84760     8.89200    12.97700    68.32100
     125      42       7     0.42380     8.11900    12.47800    68.44300
     126      42       7     0.42380     9.34200    12.55700    67.53600
     127      43       8    -0.84760     2.70800    20.96900    87.50400
     128      43       7     0.42380     2.58900    20.94500    86.55600
     129      43       7     0.42380     3.12300    21.83500    87.54900
     130      44       8    -0.84760     2.42800    12.73100    93.48700
     131      44       7     0.42380     2.71900    12.07300    92.83000
     132      44       7     0.42380     2.58200    13.54200    93.00800
     133      45       8    -0.84760     2.17400    18.46800    65.21200
     134      45       7     0.42380     2.63200    17.62800    65.20300
     135      45       7     0.42380     2.93100    19.12000    65.28100
     136      46       8    -0.84760     5.04800     9.04600    99.57800
     137      46       7     0.42380     5.06400     9.88900   100.05900
     138      46       7     0.42380     4.62200     9.22400    98.74300
     139      47       8    -0.84760    12.39000    27.30700   100.36000
     140      47       7     0.42380    11.84500    28.11300   100.29300
     141      47       7     0.42380    12.04500    26.92000   101.17500
     142      48       8    -0.84760    18.87000    21.46000    91.97100
     143      48       7     0.42380    17.90300    21.28800    91.72100
     144      48       7     0.42380    19.07400    20.69100    92.59100
     145      49       8    -0.84760    13.61200    17.68000    81.62200
     146      49       7     0.42380    13.74400    17.41400    82.50800
     147      49       7     0.42380    14.52600    17.83100    81.34700
     148      50       8    -0.84760     1.28700    24.13200    86.73700
     149      50       7     0.42380     1.23500    23.92400    87.73100
     150      50       7     0.42380     2.08800    24.70900    86.63900
     151      51       8    -0.84760     6.36500     2.67400    91.05900
     152      51       7     0.42380     5.79900     3.43700    90.84900
     153      51       7     0.42380     7.17500     3.05500    91.40300
     154      52       8    -0.84760     9.33900     6.73800    94.90100
     155      52       7     0.42380     8.90400     7.23600    95.63400
     156      52       7     0.42380     9.40400     5.83800    95.22200
     157      53       8    -0.84760    15.41400     6.56900    65.50100
     158      53       7     0.42380    16.22400     6.85800    65.12800
     159      53       7     0.42380    14.80800     6.70000    64.67100
     160      54       8    -0.84760     7.57100     3.79800    97.09500
     161      54       7     0.42380     6.96600     4.40400    96.49400
     162      54       7     0.42380     7.44600     4.09500    98.02800
     163      55       8    -0.84760     9.93500    12.87600    73.19100
     164      55       7     0.42380     9.70900    12.09800    72.63400
     165      55       7     0.42380     9.47200    12.76600    74.01800
     166      56       8    -0.84760     7.06000     2.07400    82.83000
     167      56       7     0.42380     7.65000     1.61900    83.52800
     168      56       7     0.42380     6.14800     1.79600    83.03500
     169      57       8    -0.84760    10.89500    19.32500   102.06400
     170      57       7     0.42380    10.36700    18.76800   102.66900
     171      57       7     0.42380    11.78600    18.95800   102.22900
     172      58       8    -0.84760    13.89100     1.91900    65.99200
     173      58       7     0.42380    14.19800     2.68100    66.42200
     174      58       7     0.42380    13.21200     1.57700    66.57800
     175      59       8    -0.84760     8.82300    10.58100    71.82700
     176      59       7     0.42380     8.18300    10.75300    71.14800
     177      59       7     0.42380     8.38900    10.06100    72.53400
     178      60       8    -0.84760     9.07800    11.96700    75.73400
     179      60       7     0.42380     8.22800    11.56100    75.99300
     180      60       7     0.42380     9.51200    12.19400    76.56000
     181      61       8    -0.84760    10.28200     0.64000    65.05300
     182      61       7     0.42380    10.36700     0.95900    66.01600
     183      61       7     0.42380     9.74300     1.32300    64.66700
     184      62       8    -0.84760     4.61800     8.12500    70.77700
     185      62       7     0.42380     5.40500     7.91900    71.31400
     186      62       7     0.42380     4.00200     8.45800    71.42200
     187      63       8    -0.84760     3.40300     4.68700    72.81500
     188      63       7     0.42380     3.10900     5.27200    72.09700
     189      63       7     0.42380     3.81700     3.97300    72.32700
     190      64       8    -0.84760     3.27600     7.46500    82.32500
     191      64       7     0.42380     2.77200     6.99100    82.96400
     192      64       7     0.42380     3.60400     8.28800    82.75300
     193      65       8    -0.84760     2.89100     5.04400    95.61300
     194      65       7     0.42380     2.26000     4.52000    96.15000
     195      65       7     0.42380     2.30300     5.51000    95.02000
     196      66       8    -0.84760     1.84000     8.26500    91.66200
     197      66       7     0.42380     1.68000     8.04400    90.74700
     198      66       7     0.42380     1.83400     9.21100    91.73300
     199      67       8    -0.84760     0.73700    17.90200   100.09000
     200      67       7     0.42380     0.45900    18.79200   100.35200
     201      67       7     0.42380     0.86600    17.94900    99.14700
     202      68       8    -0.84760     9.97800     7.87500    87.94800
     203      68       7     0.42380     9.58900     7.62600    88.84500
     204      68       7     0.42380    10.43600     8.65600    88.18700
     205      69       8    -0.84760     9.92700     4.18500    95.80500
     206      69       7     0.42380     9.05600     3.93500    96.20200
     207      69       7     0.42380    10.36000     3.32500    95.66500
     208      70       8    -0.84760     2.37800     5.80600    79.25300
     209      70       7     0.42380     2.15700     6.16100    80.09900
     210      70       7     0.42380     3.30100     6.03200    79.12600
     211      71       8    -0.84760     6.38200    22.27100    65.31900
     212      71       7     0.42380     5.55000    22.03500    64.84700
     213      71       7     0.42380     6.85900    21.47200    65.19200
     214      72       8    -0.84760     4.01700     3.90500    82.41800
     215      72       7     0.42380     3.14200     4.04200    82.13200
     216      72       7     0.42380     4.58200     4.72700    82.29500
     217      73       8    -0.84760     2.34400    20.47200    84.63100
     218      73       7     0.42380     2.93200    20.82100    83.94500
     219      73       7     0.42380     1.46700    20.54800    84.13800
     220      74       8    -0.84760    20.61300    13.61600    74.06600
     221      74       7     0.42380    20.73900    13.95900    73.21800
     222      74       7     0.42380    19.61900    13.81600    74.25000
     223      75       8    -0.84760    11.49200     5.54800    97.84600
     224      75       7     0.42380    11.16300     5.20400    97.04000
     225      75       7     0.42380    11.38600     6.47900    97.85900
     226      76       8    -0.84760     1.78700     9.51800    87.51500
     227      76       7     0.42380     2.13200     9.57500    86.64600
     228      76       7     0.42380     1.86000    10.40600    87.78700
     229      77       8    -0.84760     4.12700     1.87000    95.76100
     230      77       7     0.42380     3.83000     2.27200    94.98900
     231      77       7     0.42380     4.73000     2.56200    96.09800
     232      78       8    -0.84760    14.52600    10.53200    83.13700
     233      78       7     0.42380    14.16200     9.73300    83.50300
     234      78       7     0.42380    14.46600    10.42000    82.19400
     235      79       8    -0.84760    26.12400    16.59400    79.80700
     236      79       7     0.42380    26.94800    16.86400    80.24400
     237      79       7     0.42380    26.13700    17.04800    78.90000
     238      80       8    -0.84760     8.87600    28.43700    68.57900
     239      80       7     0.42380     9.22700    27.57700    68.35800
     240      80       7     0.42380     8.79000    28.39800    69.53300
     241      81       8    -0.84760     5.57300    14.80400    82.09000
     242      81       7     0.42380     5.95900    15.33900    82.80800
     243      81       7     0.42380     5.86900    15.41300    81.33100
     244      82       8    -0.84760    16.28300     7.35400    85.78100
     245      82       7     0.42380    15.64000     8.05800    85.44900
     246      82       7     0.42380    15.97300     6.56000    85.37900
     247      83       8    -0.84760    22.87200    18.44100    79.78800
     248      83       7     0.42380    22.20100    17.86400    79.37900
     249      83       7     0.42380    22.33500    18.98100    80.42500
     250      84       8    -0.84760    10.10500     0.84100   102.11100
     251      84       7     0.42380     9.48800     1.45000   101.63100
     252      84       7     0.42380    10.63200     1.41800   102.70500
     253      85       8    -0.84760     0.74200    20.64700   100.42400
     254      85       7     0.42380     0.16300    21.20200    99.85500
     255      85       7     0.42380     1.53200    20.41000    99.83700
     256      86       8    -0.84760     5.45800    13.09700    67.58900
     257      86       7     0.42380     5.67300    13.01900    66.61200
     258      86       7     0.42380     4.89900    13.89400    67.65700
     259      87       8    -0.84760    27.84900     9.86800    82.17300
     260      87       7     0.42380    27.17000     9.72000    82.86300
     261      87       7     0.42380    27.40300    10.41900    81.48900
     262      88       8    -0.84760     4.55200     1.37000    83.33000
     263      88       7     0.42380     4.27400     2.19400    82.95300
     264      88       7     0.42380     4.23500     0.80100    82.57100
     265      89       8    -0.84760     4.59400    25.26600    78.20000
     266      89       7     0.42380     3.63800    25.50000    78.19600
     267      89       7     0.42380     4.75800    24.89700    77.31200
     268      90       8    -0.84760    10.96600     0.48700    90.66400
     269      90       7     0.42380    10.83500     1.42300    90.47500
     270      90       7     0.42380    10.55800     0.09200    89.88300
     271      91       8    -0.84760     6.58000    12.99200    92.69100
     272      91       7     0.42380     6.43000    13.88600    92.97200
     273      91       7     0.42380     6.42900    12.49900    93.48100
     274      92       8    -0.84760     5.16000    13.74400    70.95400
     275      92       7     0.42380     6.04800    13.42200    71.20700
     276      92       7     0.42380     5.00800    14.49300    71.52800
     277      93       8    -0.84760     1.48800     7.75400    94.83800
     278      93       7     0.42380     0.77800     8.32300    95.19500
     279      93       7     0.42380     1.54300     8.04300    93.92100
     280      94       8    -0.84760     3.34800    27.08700   107.36900
     281      94       7     0.42380     3.84700    27.25500   108.22500
     282      94       7     0.42380     2.81300    26.33500   107.66100
     283      95       8    -0.84760    10.39000     6.38600    81.82800
     284      95       7     0.42380    10.68800     6.48400    82.73100
     285      95       7     0.42380     9.84400     5.58900    81.92100
     286      96       8    -0.84760     1.67800    21.94200    64.03500
     287      96       7     0.42380     1.27200    21.28000    64.59200
     288      96       7     0.42380     1.49800    22.80900    64.49300
     289      97       8    -0.84760     9.63000    21.54700    66.00000
     290      97       7     0.42380     9.60100    22.47100    65.64300
     291      97       7     0.42380     9.28700    20.95400    65.31200
     292      98       8    -0.84760     2.34400    10.57100    65.62400
     293      98       7     0.42380     2.12200    10.75300    66.55300
     294      98       7     0.42380     2.94700     9.79100    65.61700
     295      99       8    -0.84760     2.58200    27.63500    85.06300
     296      99       7     0.42380     1.82600    27.33400    85.61000
     297      99       7     0.42380     2.14100    27.87300    84.22700
     298     100       8    -0.84760     2.61900    28.04700   100.82000
     299     100       7     0.42380     2.46900    28.99400   100.61100
     300     100       7     0.42380     1.97100    27.75600   101.50000
     301     101       8    -0.84760     8.12300     7.89000    97.10500
     302     101       7     0.42380     8.28300     7.53900    98.03900
     303     101       7     0.42380     8.72900     8.63400    97.00000
     304     102       8    -0.84760    13.38500     9.76900    92.45300
     305     102       7     0.42380    13.85600    10.39100    93.06200
     306     102       7     0.42380    12.59900     9.51300    92.96500
     307     103       8    -0.84760     0.82300    23.66800    65.88800
     308     103       7     0.42380     1.63600    23.31600    66.34000
     309     103       7     0.42380     0.25300    23.97800    66.64000
     310     104       8    -0.84760     2.08300    28.33200    70.32600
     311     104       7     0.42380     1.55800    28.51400    71.11500
     312     104       7     0.42380     1.49600    27.73700    69.81100
     313     105       8    -0.84760    13.22000    24.49400    76.09200
     314     105       7     0.42380    12.89100    25.38300    76.28700
     315     105       7     0.42380    13.05600    23.91800    76.85300
     316     106       8    -0.84760     0.99500    28.02100    73.01500
     317     106       7     0.42380     0.01300    27.98100    73.04300
     318     106       7     0.42380     1.29800    27.11900    73.26300
     319     107       8    -0.84760     2.71000     6.18500    70.54000
     320     107       7     0.42380     2.46700     6.23600    69.56100
     321     107       7     0.42380     3.41000     6.85500    70.58000
     322     108       8    -0.84760     6.91100    19.45800    80.33500
     323     108       7     0.42380     7.51700    20.11800    79.95700
     324     108       7     0.42380     6.31500    19.13600    79.58800
     325     109       8    -0.84760    13.33600    24.46100    99.78500
     326     109       7     0.42380    13.23900    25.16400   100.43400
     327     109       7     0.42380    13.69300    23.71300   100.24400
     328     110       8    -0.84760    23.12400    20.62900   108.62400
     329     110       7     0.42380    22.11000    20.58600   108.37100
     330     110       7     0.42380    23.29500    19.66300   108.82900
     331     111       8    -0.84760     5.17900    20.89000    90.38700
     332     111       7     0.42380     4.61800    21.60600    90.64600
     333     111       7     0.42380     5.19600    20.21100    91.10700
     334     112       8    -0.84760    16.19200    22.40300    66.78200
     335     112       7     0.42380    16.36300    22.88100    67.62200
     336     112       7     0.42380    16.42700    23.06500    66.08600
     337     113       8    -0.84760    13.54000    22.22000    65.74800
     338     113       7     0.42380    12.96500    22.47500    66.46200
     339     113       7     0.42380    14.42800    22.40400    66.07400
     340     114       8    -0.84760     9.52500    28.54100    93.15100
     341     114       7     0.42380    10.41500    28.41800    92.68600
     342     114       7     0.42380     9.19700    27.67100    93.23900
     343     115       8    -0.84760     8.38900    18.16500    93.99200
     344     115       7     0.42380     7.96800    17.77000    93.21000
     345     115       7     0.42380     8.41700    17.45100    94.64100
     346     116       8    -0.84760    10.43800    21.23700   104.00900
     347     116       7     0.42380    10.84600    20.74000   103.26800
     348     116       7     0.42380     9.57700    21.48000   103.71200
     349     117       8    -0.84760    15.32600    26.96800    94.40200
     350     117       7     0.42380    14.45300    26.73600    93.92800
     351     117       7     0.42380    15.06800    27.62000    95.03300
     352     118       8    -0.84760     3.27100    18.97400   106.18700
     353     118       7     0.42380     3.45800    18.07300   105.98800
     354     118       7     0.42380     3.32000    19.42900   105.31300
     355     119       8    -0.84760     8.18100    23.46500    70.63700
     356     119       7     0.42380     9.00700    23.93700    70.70300
     357     119       7     0.42380     7.51700    24.11700    70.31200
     358     120       8    -0.84760    10.92900    14.75000    68.71800
     359     120       7     0.42380    10.05000    14.54100    68.40800
     360     120       7     0.42380    11.40100    13.87900    68.71700
     361     121       8    -0.84760    19.65900    25.55200    80.44900
     362     121       7     0.42380    20.18200    26.34600    80.49900
     363     121       7     0.42380    18.73400    25.85800    80.38100
     364     122       8    -0.84760     2.08600    25.45200    81.19400
     365     122       7     0.42380     2.17400    25.92300    80.39400
     366     122       7     0.42380     1.27200    25.86900    81.60400
     367     123       8    -0.84760    23.33100    21.61900    81.06900
     368     123       7     0.42380    23.13700    22.51600    81.45600
     369     123       7     0.42380    22.66300    20.98500    81.45000
     370     124       8    -0.84760    16.50700    17.17000    84.00600
     371     124       7     0.42380    17.22600    17.00600    83.29500
     372     124       7     0.42380    16.03000    16.29700    84.08200
     373     125       8    -0.84760     3.79000    23.31800    89.06700
     374     125       7     0.42380     4.11100    23.68400    89.90100
     375     125       7     0.42380     2.83500    23.19600    89.24800
     376     126       8    -0.84760     0.74700     4.46900    73.57900
     377     126       7     0.42380     0.42600     3.56800    73.33900
     378     126       7     0.42380     1.50500     4.58500    72.99000
     379     127       8    -0.84760    15.72100     2.98400   108.03400
     380     127       7     0.42380    15.91700     3.28500   108.98600
     381     127       7     0.42380    14.94800     3.47000   107.77600
     382     128       8    -0.84760     5.35600     5.38800    79.04600
     383     128       7     0.42380     5.88400     6.06400    79.46100
     384     128       7     0.42380     5.59200     4.62200    79.53700
     385     129       8    -0.84760     1.88900     5.58500    92.54100
     386     129       7     0.42380     1.93800     6.50200    92.26300
     387     129       7     0.42380     1.01500     5.31200    92.14500
     388     130       8    -0.84760     2.68100     2.54800   104.15200
     389     130       7     0.42380     2.59800     1.59000   103.99400
     390     130       7     0.42380     3.37000     2.65700   104.87000
     391     131       8    -0.84760    10.70400     6.72100    78.88300
     392     131       7     0.42380    10.90100     6.91200    79.83600
     393     131       7     0.42380    10.12700     5.97200    78.99800
     394     132       8    -0.84760    26.89700    12.09400    63.67900
     395     132       7     0.42380    26.51400    11.28000    63.30400
     396     132       7     0.42380    27.87500    11.92700    63.55300
     397     133       8    -0.84760     2.18900     1.70600    87.87800
     398     133       7     0.42380     1.46400     1.09100    87.71000
     399     133       7     0.42380     2.12500     1.80500    88.90000
     400     134       8    -0.84760    11.76300    19.61400    72.95800
     401     134       7     0.42380    12.27900    20.40500    72.86600
     402     134       7     0.42380    12.43500    18.90500    72.90100
     403     135       8    -0.84760     7.86400    10.60300    91.95000