LAMMPS data file. CGCMM style. atom_style full generated by VMD/TopoTools v1.1 on Sat Dec 08 19:38:23 +0800 2012
 4692 atoms
 3128 bonds
 1564 angles
 0 dihedrals
 0 impropers
 2 atom types
 1 bond types
 1 angle types
 0 dihedral types
 0 improper types
 79.987003 143.987003  xlo xhi
 -0.038000 12.742000  ylo yhi
 -4.742500 59.757500  zlo zhi

# Pair Coeffs
#
# 1  HT
# 2  OT

# Bond Coeffs
#
# 1  

# Angle Coeffs
#
# 1  unknown

 Masses

 1 1.007940 # HT
 2 15.999400 # OT

 Atoms

1 1 2 -0.834000 131.401993 7.122000 8.892000 # OT TIP3
2 1 1 0.417000 131.608994 7.299000 7.929000 # HT TIP3
3 1 1 0.417000 130.470993 7.406000 9.089000 # HT TIP3
4 2 2 -0.834000 83.667999 10.082000 11.404000 # OT TIP3
5 2 1 0.417000 83.223999 10.451000 10.601000 # HT TIP3
6 2 1 0.417000 83.092003 10.379000 12.127000 # HT TIP3
7 3 2 -0.834000 141.925995 10.347000 53.423000 # OT TIP3
8 3 1 0.417000 142.468994 9.737000 52.775002 # HT TIP3
9 3 1 0.417000 141.369995 10.905000 52.858002 # HT TIP3
10 4 2 -0.834000 86.032997 4.876000 16.391001 # OT TIP3
11 4 1 0.417000 86.078003 5.224000 17.298000 # HT TIP3
12 4 1 0.417000 86.592003 4.088000 16.461000 # HT TIP3
13 5 2 -0.834000 84.569000 3.960000 25.386999 # OT TIP3
14 5 1 0.417000 83.959000 3.160000 25.480000 # HT TIP3
15 5 1 0.417000 83.995003 4.655000 24.922001 # HT TIP3
16 6 2 -0.834000 140.718002 2.417000 0.041000 # OT TIP3
17 6 1 0.417000 140.126999 2.061000 0.722000 # HT TIP3
18 6 1 0.417000 140.557999 3.429000 0.181000 # HT TIP3
19 7 2 -0.834000 139.567001 6.586000 29.622999 # OT TIP3
20 7 1 0.417000 139.893005 7.319000 29.025999 # HT TIP3
21 7 1 0.417000 139.376999 5.810000 29.003000 # HT TIP3
22 8 2 -0.834000 142.197998 0.965000 44.083000 # OT TIP3
23 8 1 0.417000 141.389999 0.481000 44.209999 # HT TIP3
24 8 1 0.417000 141.944000 1.906000 43.987000 # HT TIP3
25 9 2 -0.834000 139.895004 2.574000 38.483002 # OT TIP3
26 9 1 0.417000 139.710007 2.899000 37.606998 # HT TIP3
27 9 1 0.417000 139.067001 2.836000 38.962002 # HT TIP3
28 10 2 -0.834000 86.387001 0.374000 46.355999 # OT TIP3
29 10 1 0.417000 86.306000 0.100000 45.424000 # HT TIP3
30 10 1 0.417000 87.155998 1.026000 46.273998 # HT TIP3
31 11 2 -0.834000 140.197998 3.711000 58.931999 # OT TIP3
32 11 1 0.417000 140.903000 3.487000 59.619999 # HT TIP3
33 11 1 0.417000 140.261002 4.660000 58.880001 # HT TIP3
34 12 2 -0.834000 80.924004 4.249000 45.730999 # OT TIP3
35 12 1 0.417000 81.352997 3.714000 46.491001 # HT TIP3
36 12 1 0.417000 80.660004 5.086000 46.216999 # HT TIP3
37 13 2 -0.834000 86.536003 3.042000 51.893002 # OT TIP3
38 13 1 0.417000 86.922997 2.544000 51.105999 # HT TIP3
39 13 1 0.417000 87.214996 3.766000 52.084999 # HT TIP3
40 14 2 -0.834000 130.895996 4.905000 5.656000 # OT TIP3
41 14 1 0.417000 130.335999 5.627000 5.989000 # HT TIP3
42 14 1 0.417000 131.214005 5.320000 4.803000 # HT TIP3
43 15 2 -0.834000 143.076004 11.719000 9.725000 # OT TIP3
44 15 1 0.417000 143.621994 11.052000 9.320000 # HT TIP3
45 15 1 0.417000 143.162003 12.507000 9.102000 # HT TIP3
46 16 2 -0.834000 94.436996 5.794000 26.056000 # OT TIP3
47 16 1 0.417000 93.524002 5.319000 26.032000 # HT TIP3
48 16 1 0.417000 94.984001 5.113000 26.473000 # HT TIP3
49 17 2 -0.834000 143.223999 5.327000 29.541000 # OT TIP3
50 17 1 0.417000 142.751007 4.693000 29.101999 # HT TIP3
51 17 1 0.417000 143.117004 5.043000 30.486000 # HT TIP3
52 18 2 -0.834000 142.514008 1.683000 31.445999 # OT TIP3
53 18 1 0.417000 141.817001 1.306000 32.050999 # HT TIP3
54 18 1 0.417000 143.257996 1.685000 32.047001 # HT TIP3
55 19 2 -0.834000 88.436996 2.169000 47.151001 # OT TIP3
56 19 1 0.417000 89.039001 2.400000 46.393002 # HT TIP3
57 19 1 0.417000 88.271004 2.912000 47.644001 # HT TIP3
58 20 2 -0.834000 87.639000 9.597000 57.726002 # OT TIP3
59 20 1 0.417000 87.373001 10.348000 57.085999 # HT TIP3
60 20 1 0.417000 86.739998 9.419000 58.090000 # HT TIP3
61 21 2 -0.834000 83.308998 7.710000 57.143002 # OT TIP3
62 21 1 0.417000 83.608002 8.229000 57.971001 # HT TIP3
63 21 1 0.417000 82.725998 7.034000 57.465000 # HT TIP3
64 22 2 -0.834000 86.205002 6.991000 13.942000 # OT TIP3
65 22 1 0.417000 86.781998 7.347000 14.652000 # HT TIP3
66 22 1 0.417000 85.308998 7.062000 14.300000 # HT TIP3
67 23 2 -0.834000 82.750000 8.844000 5.129000 # OT TIP3
68 23 1 0.417000 82.110001 8.290000 5.498000 # HT TIP3
69 23 1 0.417000 82.164001 9.245000 4.462000 # HT TIP3
70 24 2 -0.834000 82.990997 11.162000 23.360001 # OT TIP3
71 24 1 0.417000 83.594002 10.968000 22.629000 # HT TIP3
72 24 1 0.417000 82.414001 11.775000 22.930000 # HT TIP3
73 25 2 -0.834000 84.239998 7.037000 22.580999 # OT TIP3
74 25 1 0.417000 84.655998 7.831000 22.158001 # HT TIP3
75 25 1 0.417000 83.786003 7.428000 23.312000 # HT TIP3
76 26 2 -0.834000 87.171997 6.999000 34.081001 # OT TIP3
77 26 1 0.417000 87.040001 7.550000 34.827000 # HT TIP3
78 26 1 0.417000 86.244003 6.756000 33.763000 # HT TIP3
79 27 2 -0.834000 142.518005 7.343000 38.566002 # OT TIP3
80 27 1 0.417000 142.686996 6.733000 39.320000 # HT TIP3
81 27 1 0.417000 143.328003 7.276000 38.081001 # HT TIP3
82 28 2 -0.834000 90.674004 8.909000 0.486000 # OT TIP3
83 28 1 0.417000 90.998001 8.871000 1.432000 # HT TIP3
84 28 1 0.417000 89.748001 9.270000 0.575000 # HT TIP3
85 29 2 -0.834000 130.580002 9.942000 -1.875000 # OT TIP3
86 29 1 0.417000 131.369003 9.635000 -1.380000 # HT TIP3
87 29 1 0.417000 129.819000 9.781000 -1.270000 # HT TIP3
88 30 2 -0.834000 80.001999 5.667000 10.091000 # OT TIP3
89 30 1 0.417000 80.483002 5.990000 9.330000 # HT TIP3
90 30 1 0.417000 80.608002 5.781000 10.847000 # HT TIP3
91 31 2 -0.834000 89.882004 9.156000 10.416000 # OT TIP3
92 31 1 0.417000 89.573997 9.753000 11.097000 # HT TIP3
93 31 1 0.417000 90.021004 8.264000 10.789000 # HT TIP3
94 32 2 -0.834000 139.255005 2.194000 5.957000 # OT TIP3
95 32 1 0.417000 140.156006 1.837000 6.112000 # HT TIP3
96 32 1 0.417000 139.345993 3.160000 6.113000 # HT TIP3
97 33 2 -0.834000 143.156998 6.890000 10.915000 # OT TIP3
98 33 1 0.417000 142.440002 6.299000 10.656000 # HT TIP3
99 33 1 0.417000 143.925995 6.511000 10.439000 # HT TIP3
100 34 2 -0.834000 87.963997 6.107000 24.952999 # OT TIP3
101 34 1 0.417000 88.241997 5.206000 25.099001 # HT TIP3
102 34 1 0.417000 88.421997 6.545000 25.737000 # HT TIP3
103 35 2 -0.834000 142.300995 8.325000 20.028000 # OT TIP3
104 35 1 0.417000 141.725006 7.764000 19.528000 # HT TIP3
105 35 1 0.417000 142.891998 8.644000 19.316999 # HT TIP3
106 36 2 -0.834000 86.316002 5.288000 22.995001 # OT TIP3
107 36 1 0.417000 86.639999 5.631000 23.863001 # HT TIP3
108 36 1 0.417000 85.563004 5.852000 22.780001 # HT TIP3
109 37 2 -0.834000 81.661003 6.681000 -2.557000 # OT TIP3
110 37 1 0.417000 81.943001 5.739000 -2.519000 # HT TIP3
111 37 1 0.417000 80.778000 6.599000 -3.017000 # HT TIP3
112 38 2 -0.834000 138.432007 2.628000 16.184999 # OT TIP3
113 38 1 0.417000 137.514008 2.544000 16.504999 # HT TIP3
114 38 1 0.417000 138.654007 1.744000 15.833000 # HT TIP3
115 39 2 -0.834000 81.338997 3.782000 18.313999 # OT TIP3
116 39 1 0.417000 80.838997 3.425000 17.587000 # HT TIP3
117 39 1 0.417000 81.775002 3.077000 18.638000 # HT TIP3
118 40 2 -0.834000 141.091995 5.786000 4.775000 # OT TIP3
119 40 1 0.417000 141.714996 5.825000 5.551000 # HT TIP3
120 40 1 0.417000 141.287994 6.558000 4.185000 # HT TIP3
121 41 2 -0.834000 140.921005 9.933000 3.229000 # OT TIP3
122 41 1 0.417000 141.815002 10.249000 3.071000 # HT TIP3
123 41 1 0.417000 140.455002 10.780000 3.128000 # HT TIP3
124 42 2 -0.834000 90.426003 7.604000 -2.096000 # OT TIP3
125 42 1 0.417000 90.761002 8.401000 -2.506000 # HT TIP3
126 42 1 0.417000 90.248001 7.889000 -1.192000 # HT TIP3
127 43 2 -0.834000 99.952003 1.961000 21.664000 # OT TIP3
128 43 1 0.417000 100.414001 1.079000 21.579000 # HT TIP3
129 43 1 0.417000 100.667000 2.653000 21.513000 # HT TIP3
130 44 2 -0.834000 133.949005 10.305000 42.640999 # OT TIP3
131 44 1 0.417000 134.899994 10.036000 42.796001 # HT TIP3
132 44 1 0.417000 133.453003 9.729000 43.264999 # HT TIP3
133 45 2 -0.834000 103.516998 11.039000 38.284000 # OT TIP3
134 45 1 0.417000 102.686996 10.572000 38.394001 # HT TIP3
135 45 1 0.417000 104.010002 10.506000 38.861000 # HT TIP3
136 46 2 -0.834000 94.013000 11.675000 54.138000 # OT TIP3
137 46 1 0.417000 94.750000 11.044000 54.275002 # HT TIP3
138 46 1 0.417000 93.252998 11.057000 54.195000 # HT TIP3
139 47 2 -0.834000 102.571999 6.242000 -1.022000 # OT TIP3
140 47 1 0.417000 101.705002 5.845000 -0.670000 # HT TIP3
141 47 1 0.417000 102.950996 5.659000 -1.642000 # HT TIP3
142 48 2 -0.834000 90.926003 5.365000 -3.482000 # OT TIP3
143 48 1 0.417000 91.138000 4.769000 -2.746000 # HT TIP3
144 48 1 0.417000 90.656998 6.212000 -3.007000 # HT TIP3
145 49 2 -0.834000 88.647003 4.314000 14.778000 # OT TIP3
146 49 1 0.417000 87.963997 3.611000 14.826000 # HT TIP3
147 49 1 0.417000 88.042999 5.064000 14.653000 # HT TIP3
148 50 2 -0.834000 84.342003 11.388000 20.771000 # OT TIP3
149 50 1 0.417000 84.842003 10.697000 21.177999 # HT TIP3
150 50 1 0.417000 84.903000 12.148000 21.077999 # HT TIP3
151 51 2 -0.834000 128.052002 11.571000 45.231998 # OT TIP3
152 51 1 0.417000 128.598999 10.941000 45.731998 # HT TIP3
153 51 1 0.417000 127.168999 11.409000 45.596001 # HT TIP3
154 52 2 -0.834000 133.791000 12.100000 29.962999 # OT TIP3
155 52 1 0.417000 133.798996 11.780000 29.003000 # HT TIP3
156 52 1 0.417000 133.082993 12.763000 29.962000 # HT TIP3
157 53 2 -0.834000 133.457993 3.219000 45.228001 # OT TIP3
158 53 1 0.417000 132.625000 3.788000 45.215000 # HT TIP3
159 53 1 0.417000 133.994003 3.511000 44.465000 # HT TIP3
160 54 2 -0.834000 86.021004 7.484000 52.609001 # OT TIP3
161 54 1 0.417000 85.665001 7.962000 53.377998 # HT TIP3
162 54 1 0.417000 86.156998 8.108000 51.970001 # HT TIP3
163 55 2 -0.834000 83.492996 8.008000 49.307999 # OT TIP3
164 55 1 0.417000 84.439003 8.343000 49.181000 # HT TIP3
165 55 1 0.417000 82.942001 8.741000 48.959000 # HT TIP3
166 56 2 -0.834000 85.047997 9.046000 32.077999 # OT TIP3
167 56 1 0.417000 85.064003 9.889000 32.558998 # HT TIP3
168 56 1 0.417000 84.622002 9.224000 31.243000 # HT TIP3
169 57 2 -0.834000 86.364998 2.674000 23.559000 # OT TIP3
170 57 1 0.417000 85.799004 3.437000 23.349001 # HT TIP3
171 57 1 0.417000 87.175003 3.055000 23.903000 # HT TIP3
172 58 2 -0.834000 84.697998 5.069000 52.846001 # OT TIP3
173 58 1 0.417000 85.353996 4.328000 52.688000 # HT TIP3
174 58 1 0.417000 85.247002 5.834000 53.049999 # HT TIP3
175 59 2 -0.834000 140.850006 4.207000 15.438000 # OT TIP3
176 59 1 0.417000 140.074005 4.000000 15.904000 # HT TIP3
177 59 1 0.417000 141.459000 4.379000 16.197001 # HT TIP3
178 60 2 -0.834000 142.498993 4.568000 17.669001 # OT TIP3
179 60 1 0.417000 142.134003 5.431000 17.943001 # HT TIP3
180 60 1 0.417000 143.457993 4.798000 17.676001 # HT TIP3
181 61 2 -0.834000 89.338997 6.738000 27.400999 # OT TIP3
182 61 1 0.417000 88.903999 7.236000 28.134001 # HT TIP3
183 61 1 0.417000 89.403999 5.838000 27.722000 # HT TIP3
184 62 2 -0.834000 140.904007 6.863000 17.848000 # OT TIP3
185 62 1 0.417000 140.341995 6.087000 17.846001 # HT TIP3
186 62 1 0.417000 140.332993 7.567000 18.212999 # HT TIP3
187 63 2 -0.834000 83.795998 11.555000 52.862000 # OT TIP3
188 63 1 0.417000 83.824997 12.373000 52.368999 # HT TIP3
189 63 1 0.417000 83.445999 10.872000 52.285999 # HT TIP3
190 64 2 -0.834000 140.248993 1.219000 55.188999 # OT TIP3
191 64 1 0.417000 139.802002 0.722000 54.446999 # HT TIP3
192 64 1 0.417000 140.061005 0.621000 55.984001 # HT TIP3
193 65 2 -0.834000 95.414001 6.569000 -1.999000 # OT TIP3
194 65 1 0.417000 96.223999 6.858000 -2.372000 # HT TIP3
195 65 1 0.417000 94.807999 6.700000 -2.829000 # HT TIP3
196 66 2 -0.834000 142.893005 1.920000 27.628000 # OT TIP3
197 66 1 0.417000 143.326004 1.242000 28.125000 # HT TIP3
198 66 1 0.417000 142.207001 2.256000 28.243000 # HT TIP3
199 67 2 -0.834000 137.701004 7.878000 17.802000 # OT TIP3
200 67 1 0.417000 137.990997 7.016000 17.594000 # HT TIP3
201 67 1 0.417000 137.811005 8.334000 16.927000 # HT TIP3
202 68 2 -0.834000 87.570999 3.798000 29.594999 # OT TIP3
203 68 1 0.417000 86.966003 4.404000 28.993999 # HT TIP3
204 68 1 0.417000 87.445999 4.095000 30.528000 # HT TIP3
205 69 2 -0.834000 135.367004 3.493000 42.931000 # OT TIP3
206 69 1 0.417000 136.020004 2.848000 43.423000 # HT TIP3
207 69 1 0.417000 135.845993 4.335000 43.011002 # HT TIP3
208 70 2 -0.834000 123.258003 7.556000 42.955002 # OT TIP3
209 70 1 0.417000 122.728996 6.998000 43.549999 # HT TIP3
210 70 1 0.417000 123.927002 7.908000 43.547001 # HT TIP3
211 71 2 -0.834000 141.987000 3.702000 -4.477000 # OT TIP3
212 71 1 0.417000 141.891998 2.947000 -3.840000 # HT TIP3
213 71 1 0.417000 141.854004 4.473000 -3.871000 # HT TIP3
214 72 2 -0.834000 87.059998 2.074000 15.330000 # OT TIP3
215 72 1 0.417000 87.650002 1.619000 16.028000 # HT TIP3
216 72 1 0.417000 86.148003 1.796000 15.535000 # HT TIP3
217 73 2 -0.834000 139.238998 4.668000 35.681000 # OT TIP3
218 73 1 0.417000 138.723999 5.112000 35.055000 # HT TIP3
219 73 1 0.417000 140.022995 5.217000 35.806999 # HT TIP3
220 74 2 -0.834000 139.908005 8.821000 33.986000 # OT TIP3
221 74 1 0.417000 139.492004 9.103000 33.188000 # HT TIP3
222 74 1 0.417000 140.274002 7.940000 33.713001 # HT TIP3
223 75 2 -0.834000 141.559006 10.550000 37.292000 # OT TIP3
224 75 1 0.417000 141.725006 11.375000 36.839001 # HT TIP3
225 75 1 0.417000 140.634003 10.513000 37.344002 # HT TIP3
226 76 2 -0.834000 136.334000 8.997000 43.049000 # OT TIP3
227 76 1 0.417000 136.962006 9.666000 42.599998 # HT TIP3
228 76 1 0.417000 136.432007 9.167000 44.000000 # HT TIP3
229 77 2 -0.834000 89.208000 6.296000 54.833000 # OT TIP3
230 77 1 0.417000 89.456001 5.949000 55.675999 # HT TIP3
231 77 1 0.417000 88.602997 7.045000 55.054001 # HT TIP3
232 78 2 -0.834000 81.924004 2.977000 48.063000 # OT TIP3
233 78 1 0.417000 81.962997 3.498000 48.879002 # HT TIP3
234 78 1 0.417000 81.532997 2.126000 48.361000 # HT TIP3
235 79 2 -0.834000 93.890999 1.919000 -1.508000 # OT TIP3
236 79 1 0.417000 94.197998 2.681000 -1.078000 # HT TIP3
237 79 1 0.417000 93.211998 1.577000 -0.922000 # HT TIP3
238 80 2 -0.834000 88.822998 10.581000 4.327000 # OT TIP3
239 80 1 0.417000 88.182999 10.753000 3.648000 # HT TIP3
240 80 1 0.417000 88.389000 10.061000 5.034000 # HT TIP3
241 81 2 -0.834000 138.057007 5.352000 7.259000 # OT TIP3
242 81 1 0.417000 138.311996 6.102000 7.705000 # HT TIP3
243 81 1 0.417000 138.628998 4.732000 7.646000 # HT TIP3
244 82 2 -0.834000 89.078003 11.967000 8.234000 # OT TIP3
245 82 1 0.417000 88.227997 11.561000 8.493000 # HT TIP3
246 82 1 0.417000 89.512001 12.194000 9.060000 # HT TIP3
247 83 2 -0.834000 90.281998 0.640000 -2.447000 # OT TIP3
248 83 1 0.417000 90.366997 0.959000 -1.484000 # HT TIP3
249 83 1 0.417000 89.742996 1.323000 -2.833000 # HT TIP3
250 84 2 -0.834000 84.617996 8.125000 3.277000 # OT TIP3
251 84 1 0.417000 85.404999 7.919000 3.814000 # HT TIP3
252 84 1 0.417000 84.001999 8.458000 3.922000 # HT TIP3
253 85 2 -0.834000 83.403000 4.687000 5.315000 # OT TIP3
254 85 1 0.417000 83.109001 5.272000 4.597000 # HT TIP3
255 85 1 0.417000 83.817001 3.973000 4.827000 # HT TIP3
256 86 2 -0.834000 130.438004 3.267000 14.960000 # OT TIP3
257 86 1 0.417000 129.477005 3.173000 14.674000 # HT TIP3
258 86 1 0.417000 130.587006 2.601000 15.685000 # HT TIP3
259 87 2 -0.834000 83.276001 7.465000 14.825000 # OT TIP3
260 87 1 0.417000 82.772003 6.991000 15.464000 # HT TIP3
261 87 1 0.417000 83.603996 8.288000 15.253000 # HT TIP3
262 88 2 -0.834000 82.890999 5.044000 28.113001 # OT TIP3
263 88 1 0.417000 82.260002 4.520000 28.650000 # HT TIP3
264 88 1 0.417000 82.303001 5.510000 27.520000 # HT TIP3
265 89 2 -0.834000 81.839996 8.265000 24.162001 # OT TIP3
266 89 1 0.417000 81.680000 8.044000 23.247000 # HT TIP3
267 89 1 0.417000 81.834000 9.211000 24.233000 # HT TIP3
268 90 2 -0.834000 89.977997 7.875000 20.448000 # OT TIP3
269 90 1 0.417000 89.588997 7.626000 21.344999 # HT TIP3
270 90 1 0.417000 90.435997 8.656000 20.687000 # HT TIP3
271 91 2 -0.834000 89.927002 4.185000 28.305000 # OT TIP3
272 91 1 0.417000 89.056000 3.935000 28.702000 # HT TIP3
273 91 1 0.417000 90.360001 3.325000 28.165001 # HT TIP3
274 92 2 -0.834000 140.701004 6.785000 36.397999 # OT TIP3
275 92 1 0.417000 141.416000 7.120000 36.966000 # HT TIP3
276 92 1 0.417000 140.505997 7.501000 35.770000 # HT TIP3
277 93 2 -0.834000 80.897003 4.474000 50.219002 # OT TIP3
278 93 1 0.417000 81.321999 5.343000 50.251999 # HT TIP3
279 93 1 0.417000 80.190002 4.576000 50.844002 # HT TIP3
280 94 2 -0.834000 81.851997 10.707000 57.250999 # OT TIP3
281 94 1 0.417000 82.632004 10.115000 57.353001 # HT TIP3
282 94 1 0.417000 81.574997 10.985000 58.155998 # HT TIP3
283 95 2 -0.834000 83.119003 10.325000 8.658000 # OT TIP3
284 95 1 0.417000 83.598000 10.900000 8.012000 # HT TIP3
285 95 1 0.417000 83.440002 9.430000 8.462000 # HT TIP3
286 96 2 -0.834000 135.259995 10.227000 58.469002 # OT TIP3
287 96 1 0.417000 135.772995 10.068000 57.683998 # HT TIP3
288 96 1 0.417000 135.201996 11.236000 58.499001 # HT TIP3
289 97 2 -0.834000 82.377998 5.806000 11.753000 # OT TIP3
290 97 1 0.417000 82.156998 6.161000 12.599000 # HT TIP3
291 97 1 0.417000 83.301003 6.032000 11.626000 # HT TIP3
292 98 2 -0.834000 84.016998 3.905000 14.918000 # OT TIP3
293 98 1 0.417000 83.141998 4.042000 14.632000 # HT TIP3
294 98 1 0.417000 84.582001 4.727000 14.795000 # HT TIP3
295 99 2 -0.834000 135.085007 0.906000 22.006001 # OT TIP3
296 99 1 0.417000 135.544006 0.298000 21.518999 # HT TIP3
297 99 1 0.417000 135.753998 1.207000 22.573000 # HT TIP3
298 100 2 -0.834000 91.491997 5.548000 30.346001 # OT TIP3
299 100 1 0.417000 91.163002 5.204000 29.540001 # HT TIP3
300 100 1 0.417000 91.386002 6.479000 30.358999 # HT TIP3
301 101 2 -0.834000 81.787003 9.518000 20.014999 # OT TIP3
302 101 1 0.417000 82.132004 9.575000 19.146000 # HT TIP3
303 101 1 0.417000 81.860001 10.406000 20.287001 # HT TIP3
304 102 2 -0.834000 84.126999 1.870000 28.261000 # OT TIP3
305 102 1 0.417000 83.830002 2.272000 27.489000 # HT TIP3
306 102 1 0.417000 84.730003 2.562000 28.598000 # HT TIP3
307 103 2 -0.834000 94.526001 10.532000 15.637000 # OT TIP3
308 103 1 0.417000 94.162003 9.733000 16.003000 # HT TIP3
309 103 1 0.417000 94.466003 10.420000 14.694000 # HT TIP3
310 104 2 -0.834000 90.488998 9.742000 48.992001 # OT TIP3
311 104 1 0.417000 90.035004 9.350000 49.719002 # HT TIP3
312 104 1 0.417000 90.747002 8.998000 48.466000 # HT TIP3
313 105 2 -0.834000 142.399994 10.633000 41.109001 # OT TIP3
314 105 1 0.417000 142.309006 9.897000 40.448002 # HT TIP3
315 105 1 0.417000 141.764999 11.281000 40.874001 # HT TIP3
316 106 2 -0.834000 91.280998 12.413000 51.952999 # OT TIP3
317 106 1 0.417000 91.362000 11.719000 52.640999 # HT TIP3
318 106 1 0.417000 91.657997 11.994000 51.148998 # HT TIP3
319 107 2 -0.834000 87.964996 5.456000 52.178001 # OT TIP3
320 107 1 0.417000 88.394997 5.611000 52.988998 # HT TIP3
321 107 1 0.417000 87.285004 6.143000 52.176998 # HT TIP3
322 108 2 -0.834000 96.282997 7.354000 18.281000 # OT TIP3
323 108 1 0.417000 95.639999 8.058000 17.948999 # HT TIP3
324 108 1 0.417000 95.973000 6.560000 17.879000 # HT TIP3
325 109 2 -0.834000 133.733994 12.243000 38.554001 # OT TIP3
326 109 1 0.417000 134.423996 11.680000 38.908001 # HT TIP3
327 109 1 0.417000 133.960999 12.305000 37.575001 # HT TIP3
328 110 2 -0.834000 90.105003 0.841000 34.611000 # OT TIP3
329 110 1 0.417000 89.487999 1.450000 34.131001 # HT TIP3
330 110 1 0.417000 90.632004 1.418000 35.205002 # HT TIP3
331 111 2 -0.834000 107.848999 9.868000 14.673000 # OT TIP3
332 111 1 0.417000 107.169998 9.720000 15.363000 # HT TIP3
333 111 1 0.417000 107.403000 10.419000 13.989000 # HT TIP3
334 112 2 -0.834000 84.552002 1.370000 15.830000 # OT TIP3
335 112 1 0.417000 84.274002 2.194000 15.453000 # HT TIP3
336 112 1 0.417000 84.235001 0.801000 15.071000 # HT TIP3
337 113 2 -0.834000 90.966003 0.487000 23.164000 # OT TIP3
338 113 1 0.417000 90.834999 1.423000 22.975000 # HT TIP3
339 113 1 0.417000 90.557999 0.092000 22.382999 # HT TIP3
340 114 2 -0.834000 81.487999 7.754000 27.337999 # OT TIP3
341 114 1 0.417000 80.778000 8.323000 27.695000 # HT TIP3
342 114 1 0.417000 81.542999 8.043000 26.421000 # HT TIP3
343 115 2 -0.834000 90.389999 6.386000 14.328000 # OT TIP3
344 115 1 0.417000 90.688004 6.484000 15.231000 # HT TIP3
345 115 1 0.417000 89.844002 5.589000 14.421000 # HT TIP3
346 116 2 -0.834000 82.344002 10.571000 -1.876000 # OT TIP3
347 116 1 0.417000 82.122002 10.753000 -0.947000 # HT TIP3
348 116 1 0.417000 82.946999 9.791000 -1.883000 # HT TIP3
349 117 2 -0.834000 88.123001 7.890000 29.605000 # OT TIP3
350 117 1 0.417000 88.282997 7.539000 30.539000 # HT TIP3
351 117 1 0.417000 88.728996 8.634000 29.500000 # HT TIP3
352 118 2 -0.834000 93.385002 9.769000 24.952999 # OT TIP3
353 118 1 0.417000 93.856003 10.391000 25.562000 # HT TIP3
354 118 1 0.417000 92.598999 9.513000 25.465000 # HT TIP3
355 119 2 -0.834000 85.153999 9.881000 45.596001 # OT TIP3
356 119 1 0.417000 86.019997 10.053000 45.089001 # HT TIP3
357 119 1 0.417000 84.564003 10.243000 44.910000 # HT TIP3
358 120 2 -0.834000 82.709999 6.185000 3.040000 # OT TIP3
359 120 1 0.417000 82.467003 6.236000 2.061000 # HT TIP3
360 120 1 0.417000 83.410004 6.855000 3.080000 # HT TIP3
361 121 2 -0.834000 138.613998 5.058000 17.504999 # OT TIP3
362 121 1 0.417000 138.147003 4.965000 18.325001 # HT TIP3
363 121 1 0.417000 138.561996 4.163000 17.141001 # HT TIP3
364 122 2 -0.834000 130.199997 9.418000 31.959000 # OT TIP3
365 122 1 0.417000 130.231003 9.198000 31.024000 # HT TIP3
366 122 1 0.417000 130.628998 8.633000 32.339001 # HT TIP3
367 123 2 -0.834000 125.796997 10.042000 36.730999 # OT TIP3
368 123 1 0.417000 126.157997 9.484000 37.476002 # HT TIP3
369 123 1 0.417000 126.211998 10.913000 36.924000 # HT TIP3
370 124 2 -0.834000 143.572998 3.084000 13.585000 # OT TIP3
371 124 1 0.417000 142.796997 3.096000 13.015000 # HT TIP3
372 124 1 0.417000 143.761993 4.006000 13.694000 # HT TIP3
373 125 2 -0.834000 139.306000 1.374000 9.962000 # OT TIP3
374 125 1 0.417000 139.201004 0.839000 9.169000 # HT TIP3
375 125 1 0.417000 139.233002 0.754000 10.723000 # HT TIP3
376 126 2 -0.834000 85.782997 2.433000 57.895000 # OT TIP3
377 126 1 0.417000 85.390999 2.688000 58.692001 # HT TIP3
378 126 1 0.417000 85.667000 3.226000 57.249001 # HT TIP3
379 127 2 -0.834000 80.747002 4.469000 6.079000 # OT TIP3
380 127 1 0.417000 80.426003 3.568000 5.839000 # HT TIP3
381 127 1 0.417000 81.504997 4.585000 5.490000 # HT TIP3
382 128 2 -0.834000 142.529999 2.102000 18.864000 # OT TIP3
383 128 1 0.417000 142.559006 2.927000 18.302000 # HT TIP3
384 128 1 0.417000 142.927002 2.382000 19.676001 # HT TIP3
385 129 2 -0.834000 95.721001 2.984000 40.534000 # OT TIP3
386 129 1 0.417000 95.917000 3.285000 41.486000 # HT TIP3
387 129 1 0.417000 94.947998 3.470000 40.276001 # HT TIP3
388 130 2 -0.834000 84.137001 8.863000 54.433998 # OT TIP3
389 130 1 0.417000 83.795998 8.513000 55.250999 # HT TIP3
390 130 1 0.417000 84.098000 9.826000 54.575001 # HT TIP3
391 131 2 -0.834000 85.356003 5.388000 11.546000 # OT TIP3
392 131 1 0.417000 85.884003 6.064000 11.961000 # HT TIP3
393 131 1 0.417000 85.592003 4.622000 12.037000 # HT TIP3
394 132 2 -0.834000 81.889000 5.585000 25.041000 # OT TIP3
395 132 1 0.417000 81.938004 6.502000 24.763000 # HT TIP3
396 132 1 0.417000 81.014999 5.312000 24.645000 # HT TIP3
397 133 2 -0.834000 82.681000 2.548000 36.652000 # OT TIP3
398 133 1 0.417000 82.598000 1.590000 36.493999 # HT TIP3
399 133 1 0.417000 83.370003 2.657000 37.369999 # HT TIP3
400 134 2 -0.834000 139.792007 1.536000 41.834000 # OT TIP3
401 134 1 0.417000 139.080994 1.835000 41.199001 # HT TIP3
402 134 1 0.417000 139.865997 0.576000 41.694000 # HT TIP3
403 135 2 -0.834000 80.738998 8.269000 52.563000 # OT TIP3
404 135 1 0.417000 80.902000 8.985000 51.910000 # HT TIP3
405 135 1 0.417000 81.373001 7.605000 52.351002 # HT TIP3
406 136 2 -0.834000 134.171005 7.709000 16.216999 # OT TIP3
407 136 1 0.417000 134.770004 7.944000 15.435000 # HT TIP3
408 136 1 0.417000 134.460007 6.822000 16.389999 # HT TIP3
409 137 2 -0.834000 90.704002 6.721000 11.383000 # OT TIP3
410 137 1 0.417000 90.901001 6.912000 12.336000 # HT TIP3
411 137 1 0.417000 90.126999 5.972000 11.498000 # HT TIP3
412 138 2 -0.834000 135.604004 6.333000 53.415001 # OT TIP3
413 138 1 0.417000 134.722000 6.375000 53.800999 # HT TIP3
414 138 1 0.417000 136.123001 5.876000 54.139000 # HT TIP3
415 139 2 -0.834000 106.897003 12.094000 -3.821000 # OT TIP3
416 139 1 0.417000 106.514000 11.280000 -4.196000 # HT TIP3
417 139 1 0.417000 107.875000 11.927000 -3.947000 # HT TIP3
418 140 2 -0.834000 82.189003 1.706000 20.378000 # OT TIP3
419 140 1 0.417000 81.463997 1.091000 20.209999 # HT TIP3
420 140 1 0.417000 82.125000 1.805000 21.400000 # HT TIP3
421 141 2 -0.834000 87.863998 10.603000 24.450001 # OT TIP3
422 141 1 0.417000 87.469002 11.275000 25.007000 # HT TIP3
423 141 1 0.417000 87.153999 9.992000 24.283001 # HT TIP3
424 142 2 -0.834000 84.647003 6.632000 33.034000 # OT TIP3
425 142 1 0.417000 83.842003 6.176000 32.698002 # HT TIP3
426 142 1 0.417000 84.629997 7.486000 32.590000 # HT TIP3
427 143 2 -0.834000 90.446999 6.444000 50.368999 # OT TIP3
428 143 1 0.417000 89.535004 6.413000 50.217999 # HT TIP3
429 143 1 0.417000 90.569000 6.050000 51.166000 # HT TIP3
430 144 2 -0.834000 90.892998 8.416000 25.815001 # OT TIP3
431 144 1 0.417000 90.738998 7.787000 25.038000 # HT TIP3
432 144 1 0.417000 90.361000 7.971000 26.474001 # HT TIP3
433 145 2 -0.834000 87.084999 12.323000 40.401001 # OT TIP3
434 145 1 0.417000 87.028000 11.515000 40.980000 # HT TIP3
435 145 1 0.417000 87.997002 12.362000 40.143002 # HT TIP3
436 146 2 -0.834000 91.253998 5.291000 52.624001 # OT TIP3
437 146 1 0.417000 90.911003 5.154000 53.485001 # HT TIP3
438 146 1 0.417000 92.178001 5.470000 52.740002 # HT TIP3
439 147 2 -0.834000 87.027000 2.224000 8.911000 # OT TIP3
440 147 1 0.417000 86.184998 2.801000 9.035000 # HT TIP3
441 147 1 0.417000 86.692001 1.403000 9.242000 # HT TIP3
442 148 2 -0.834000 97.811996 5.771000 1.376000 # OT TIP3
443 148 1 0.417000 97.220001 6.316000 0.880000 # HT TIP3
444 148 1 0.417000 97.551003 4.869000 1.169000 # HT TIP3
445 149 2 -0.834000 84.028000 7.699000 8.276000 # OT TIP3
446 149 1 0.417000 84.577003 7.193000 7.638000 # HT TIP3
447 149 1 0.417000 83.170998 7.320000 8.044000 # HT TIP3
448 150 2 -0.834000 91.049004 9.880000 22.382000 # OT TIP3
449 150 1 0.417000 91.394997 9.481000 23.155001 # HT TIP3
450 150 1 0.417000 91.904999 10.095000 21.882999 # HT TIP3
451 151 2 -0.834000 102.133003 2.886000 15.343000 # OT TIP3
452 151 1 0.417000 102.929001 2.596000 15.762000 # HT TIP3
453 151 1 0.417000 101.486000 2.828000 16.061001 # HT TIP3
454 152 2 -0.834000 100.974998 7.300000 26.076000 # OT TIP3
455 152 1 0.417000 101.780998 6.730000 25.919001 # HT TIP3
456 152 1 0.417000 101.289001 7.819000 26.805000 # HT TIP3
457 153 2 -0.834000 142.966003 2.634000 35.851002 # OT TIP3
458 153 1 0.417000 143.375000 2.720000 36.744999 # HT TIP3
459 153 1 0.417000 142.179001 2.096000 36.042000 # HT TIP3
460 154 2 -0.834000 83.079002 5.719000 47.935001 # OT TIP3
461 154 1 0.417000 82.099998 5.778000 47.886002 # HT TIP3
462 154 1 0.417000 83.278999 6.534000 48.462002 # HT TIP3
463 155 2 -0.834000 92.492996 9.451000 -2.285000 # OT TIP3
464 155 1 0.417000 92.907997 9.840000 -1.513000 # HT TIP3
465 155 1 0.417000 92.982002 8.641000 -2.461000 # HT TIP3
466 156 2 -0.834000 91.177002 9.610000 3.428000 # OT TIP3
467 156 1 0.417000 90.443001 10.172000 3.553000 # HT TIP3
468 156 1 0.417000 90.865997 8.788000 3.798000 # HT TIP3
469 157 2 -0.834000 81.837997 3.206000 10.898000 # OT TIP3
470 157 1 0.417000 82.200996 4.081000 11.045000 # HT TIP3
471 157 1 0.417000 82.116997 2.999000 9.922000 # HT TIP3
472 158 2 -0.834000 96.133003 12.593000 12.408000 # OT TIP3
473 158 1 0.417000 95.351997 12.769000 11.891000 # HT TIP3
474 158 1 0.417000 95.887001 11.876000 13.011000 # HT TIP3
475 159 2 -0.834000 81.899002 11.624000 13.393000 # OT TIP3
476 159 1 0.417000 81.139000 11.678000 12.805000 # HT TIP3
477 159 1 0.417000 82.258003 12.535000 13.355000 # HT TIP3
478 160 2 -0.834000 83.458000 9.868000 17.919001 # OT TIP3
479 160 1 0.417000 84.398003 10.016000 18.153999 # HT TIP3
480 160 1 0.417000 83.447998 10.189000 16.995001 # HT TIP3
481 161 2 -0.834000 82.924004 4.143000 22.459000 # OT TIP3
482 161 1 0.417000 83.557999 4.546000 21.875999 # HT TIP3
483 161 1 0.417000 82.665001 4.830000 23.091999 # HT TIP3
484 162 2 -0.834000 80.750000 2.938000 28.961000 # OT TIP3
485 162 1 0.417000 80.744003 2.509000 29.815001 # HT TIP3
486 162 1 0.417000 80.390999 3.809000 29.243000 # HT TIP3
487 163 2 -0.834000 91.759003 4.167000 56.877998 # OT TIP3
488 163 1 0.417000 92.185997 3.594000 56.172001 # HT TIP3
489 163 1 0.417000 90.968002 3.733000 57.098000 # HT TIP3
490 164 2 -0.834000 95.430000 3.274000 2.907000 # OT TIP3
491 164 1 0.417000 95.458000 2.741000 3.657000 # HT TIP3
492 164 1 0.417000 95.932999 2.740000 2.270000 # HT TIP3
493 165 2 -0.834000 93.134003 4.535000 2.059000 # OT TIP3
494 165 1 0.417000 92.433998 3.932000 2.438000 # HT TIP3
495 165 1 0.417000 93.959000 4.162000 2.465000 # HT TIP3
496 166 2 -0.834000 85.708000 4.426000 19.917999 # OT TIP3
497 166 1 0.417000 86.001999 4.703000 20.799999 # HT TIP3
498 166 1 0.417000 85.156998 5.168000 19.643999 # HT TIP3
499 167 2 -0.834000 95.398003 1.552000 13.746000 # OT TIP3
500 167 1 0.417000 96.015999 1.951000 13.066000 # HT TIP3
501 167 1 0.417000 94.573997 2.011000 13.609000 # HT TIP3
502 168 2 -0.834000 83.055000 12.102000 38.195999 # OT TIP3
503 168 1 0.417000 82.634003 12.194000 39.050999 # HT TIP3
504 168 1 0.417000 82.643997 12.777000 37.689999 # HT TIP3
505 169 2 -0.834000 83.108002 2.203000 41.186001 # OT TIP3
506 169 1 0.417000 83.052002 3.171000 41.002998 # HT TIP3
507 169 1 0.417000 83.146004 2.115000 42.173000 # HT TIP3
508 170 2 -0.834000 85.836998 8.956000 48.356998 # OT TIP3
509 170 1 0.417000 85.325996 9.000000 47.587002 # HT TIP3