LAMMPS data file. CGCMM style. atom_style full generated by VMD/TopoTools v1.1 on Sun Nov 18 21:54:50 +0800 2012
 4069 atoms
 2566 bonds
 1283 angles
 0 dihedrals
 0 impropers
 4 atom types
 1 bond types
 1 angle types
 0 dihedral types
 0 improper types
 -0.031500 28.968500  xlo xhi
 0.549500 29.249501  ylo yhi
 60.476999 119.677000  zlo zhi

# Pair Coeffs
#
# 1  CLA
# 2  HT
# 3  OT
# 4  SOD

# Bond Coeffs
#
# 1  

# Angle Coeffs
#
# 1  unknown

 Masses

 1 35.452999 # CLA
 2 1.007940 # HT
 3 15.999400 # OT
 4 22.989771 # SOD

 Atoms

1 1 3 -0.834000 3.968000 10.382000 76.304001 # OT TIP3
2 1 2 0.417000 3.524000 10.751000 75.500999 # HT TIP3
3 1 2 0.417000 3.392000 10.679000 77.027000 # HT TIP3
4 2 3 -0.834000 6.333000 5.176000 81.291000 # OT TIP3
5 2 2 0.417000 6.378000 5.524000 82.197998 # HT TIP3
6 2 2 0.417000 6.892000 4.388000 81.361000 # HT TIP3
7 3 3 -0.834000 4.869000 4.260000 90.287003 # OT TIP3
8 3 2 0.417000 4.259000 3.460000 90.379997 # HT TIP3
9 3 2 0.417000 4.295000 4.955000 89.821999 # HT TIP3
10 4 3 -0.834000 6.687000 0.674000 111.255997 # OT TIP3
11 4 2 0.417000 6.606000 0.400000 110.323997 # HT TIP3
12 4 2 0.417000 7.456000 1.326000 111.174004 # HT TIP3
13 5 3 -0.834000 1.224000 4.549000 110.630997 # OT TIP3
14 5 2 0.417000 1.653000 4.014000 111.390999 # HT TIP3
15 5 2 0.417000 0.960000 5.386000 111.116997 # HT TIP3
16 6 3 -0.834000 14.737000 6.094000 90.956001 # OT TIP3
17 6 2 0.417000 13.824000 5.619000 90.931999 # HT TIP3
18 6 2 0.417000 15.284000 5.413000 91.373001 # HT TIP3
19 7 3 -0.834000 8.624000 14.111000 81.732002 # OT TIP3
20 7 2 0.417000 8.933000 13.648000 82.512001 # HT TIP3
21 7 2 0.417000 8.806000 13.416000 81.044998 # HT TIP3
22 8 3 -0.834000 11.762000 26.326000 91.773003 # OT TIP3
23 8 2 0.417000 11.686000 26.995001 92.475998 # HT TIP3
24 8 2 0.417000 10.919000 26.379999 91.335999 # HT TIP3
25 9 3 -0.834000 8.737000 2.469000 112.051003 # OT TIP3
26 9 2 0.417000 9.339000 2.700000 111.292999 # HT TIP3
27 9 2 0.417000 8.571000 3.212000 112.543999 # HT TIP3
28 10 3 -0.834000 4.086000 16.618000 61.709999 # OT TIP3
29 10 2 0.417000 4.081000 15.688000 61.596001 # HT TIP3
30 10 2 0.417000 4.828000 16.879999 61.181000 # HT TIP3
31 11 3 -0.834000 3.050000 9.144000 70.028999 # OT TIP3
32 11 2 0.417000 2.410000 8.590000 70.398003 # HT TIP3
33 11 2 0.417000 2.464000 9.545000 69.362000 # HT TIP3
34 12 3 -0.834000 4.235000 16.495001 82.509003 # OT TIP3
35 12 2 0.417000 5.170000 16.334000 82.385002 # HT TIP3
36 12 2 0.417000 3.955000 15.667000 82.981003 # HT TIP3
37 13 3 -0.834000 3.291000 11.462000 88.260002 # OT TIP3
38 13 2 0.417000 3.894000 11.268000 87.528999 # HT TIP3
39 13 2 0.417000 2.714000 12.075000 87.830002 # HT TIP3
40 14 3 -0.834000 4.540000 7.337000 87.481003 # OT TIP3
41 14 2 0.417000 4.956000 8.131000 87.057999 # HT TIP3
42 14 2 0.417000 4.086000 7.728000 88.211998 # HT TIP3
43 15 3 -0.834000 7.472000 7.299000 98.981003 # OT TIP3
44 15 2 0.417000 7.340000 7.850000 99.726997 # HT TIP3
45 15 2 0.417000 6.544000 7.056000 98.663002 # HT TIP3
46 16 3 -0.834000 10.182000 9.456000 75.316002 # OT TIP3
47 16 2 0.417000 9.874000 10.053000 75.997002 # HT TIP3
48 16 2 0.417000 10.321000 8.564000 75.689003 # HT TIP3
49 17 3 -0.834000 8.264000 6.407000 89.852997 # OT TIP3
50 17 2 0.417000 8.542000 5.506000 89.999001 # HT TIP3
51 17 2 0.417000 8.722000 6.845000 90.637001 # HT TIP3
52 18 3 -0.834000 24.476999 14.571000 98.526001 # OT TIP3
53 18 2 0.417000 23.834000 14.242000 97.859001 # HT TIP3
54 18 2 0.417000 25.362000 14.382000 98.082001 # HT TIP3
55 19 3 -0.834000 2.678000 16.555000 112.599998 # OT TIP3
56 19 2 0.417000 2.603000 15.573000 112.665001 # HT TIP3
57 19 2 0.417000 3.002000 16.773001 113.542999 # HT TIP3
58 20 3 -0.834000 1.961000 6.981000 62.342999 # OT TIP3
59 20 2 0.417000 2.243000 6.039000 62.381001 # HT TIP3
60 20 2 0.417000 1.078000 6.899000 61.882999 # HT TIP3
61 21 3 -0.834000 5.121000 20.903000 71.639000 # OT TIP3
62 21 2 0.417000 5.766000 21.082001 72.362999 # HT TIP3
63 21 2 0.417000 5.684000 21.214001 70.856003 # HT TIP3
64 22 3 -0.834000 15.322000 21.155001 73.231003 # OT TIP3
65 22 2 0.417000 14.522000 21.108999 73.692001 # HT TIP3
66 22 2 0.417000 14.973000 21.357000 72.318001 # HT TIP3
67 23 3 -0.834000 1.639000 4.082000 83.213997 # OT TIP3
68 23 2 0.417000 1.139000 3.725000 82.487000 # HT TIP3
69 23 2 0.417000 2.075000 3.377000 83.538002 # HT TIP3
70 24 3 -0.834000 0.785000 15.437000 82.875999 # OT TIP3
71 24 2 0.417000 0.944000 15.725000 83.749001 # HT TIP3
72 24 2 0.417000 0.612000 16.261000 82.375000 # HT TIP3
73 25 3 -0.834000 13.443000 14.095000 93.878998 # OT TIP3
74 25 2 0.417000 13.231000 13.853000 94.755997 # HT TIP3
75 25 2 0.417000 13.823000 14.962000 93.918999 # HT TIP3
76 26 3 -0.834000 12.721000 20.895000 91.742996 # OT TIP3
77 26 2 0.417000 12.630000 20.921000 92.703003 # HT TIP3
78 26 2 0.417000 12.581000 21.826000 91.462997 # HT TIP3
79 27 3 -0.834000 10.255000 17.933001 101.607002 # OT TIP3
80 27 2 0.417000 9.341000 18.160999 101.766998 # HT TIP3
81 27 2 0.417000 10.505000 17.263000 102.348000 # HT TIP3
82 28 3 -0.834000 7.542000 27.120001 116.684998 # OT TIP3
83 28 2 0.417000 7.309000 26.351999 116.144997 # HT TIP3
84 28 2 0.417000 7.123000 27.849001 116.122002 # HT TIP3
85 29 3 -0.834000 5.908000 24.218000 73.359001 # OT TIP3
86 29 2 0.417000 5.140000 23.922001 72.945000 # HT TIP3
87 29 2 0.417000 6.337000 24.636000 72.608002 # HT TIP3
88 30 3 -0.834000 8.869000 25.983999 72.611000 # OT TIP3
89 30 2 0.417000 9.423000 25.841999 73.415001 # HT TIP3
90 30 2 0.417000 9.105000 26.895000 72.327003 # HT TIP3
91 31 3 -0.834000 4.569000 23.052000 76.665001 # OT TIP3
92 31 2 0.417000 4.449000 23.980000 76.288002 # HT TIP3
93 31 2 0.417000 5.361000 23.096001 77.176003 # HT TIP3
94 32 3 -0.834000 3.899000 13.989000 83.983002 # OT TIP3
95 32 2 0.417000 3.730000 13.176000 84.461998 # HT TIP3
96 32 2 0.417000 4.861000 14.069000 84.060997 # HT TIP3
97 33 3 -0.834000 20.252001 2.261000 86.564003 # OT TIP3
98 33 2 0.417000 20.714001 1.379000 86.478996 # HT TIP3
99 33 2 0.417000 20.966999 2.953000 86.413002 # HT TIP3
100 34 3 -0.834000 4.378000 21.104000 110.666000 # OT TIP3
101 34 2 0.417000 4.802000 21.409000 111.460999 # HT TIP3
102 34 2 0.417000 3.693000 20.389000 110.998001 # HT TIP3
103 35 3 -0.834000 23.816999 11.339000 103.183998 # OT TIP3
104 35 2 0.417000 22.987000 10.872000 103.293999 # HT TIP3
105 35 2 0.417000 24.309999 10.806000 103.761002 # HT TIP3
106 36 3 -0.834000 14.313000 11.975000 119.038002 # OT TIP3
107 36 2 0.417000 15.050000 11.344000 119.175003 # HT TIP3
108 36 2 0.417000 13.553000 11.357000 119.095001 # HT TIP3
109 37 3 -0.834000 22.872000 6.542000 63.877998 # OT TIP3
110 37 2 0.417000 22.004999 6.145000 64.230003 # HT TIP3
111 37 2 0.417000 23.250999 5.959000 63.257999 # HT TIP3
112 38 3 -0.834000 11.226000 5.665000 61.417999 # OT TIP3
113 38 2 0.417000 11.438000 5.069000 62.153999 # HT TIP3
114 38 2 0.417000 10.957000 6.512000 61.893002 # HT TIP3
115 39 3 -0.834000 8.947000 4.614000 79.678001 # OT TIP3
116 39 2 0.417000 8.264000 3.911000 79.725998 # HT TIP3
117 39 2 0.417000 8.343000 5.364000 79.553001 # HT TIP3
118 40 3 -0.834000 8.681000 17.618999 83.675003 # OT TIP3
119 40 2 0.417000 7.816000 17.639999 84.095001 # HT TIP3
120 40 2 0.417000 8.731000 18.563000 83.408997 # HT TIP3
121 41 3 -0.834000 4.642000 11.688000 85.670998 # OT TIP3
122 41 2 0.417000 5.142000 10.997000 86.078003 # HT TIP3
123 41 2 0.417000 5.203000 12.448000 85.977997 # HT TIP3
124 42 3 -0.834000 1.970000 15.975000 89.566002 # OT TIP3
125 42 2 0.417000 2.420000 16.250000 90.374001 # HT TIP3
126 42 2 0.417000 1.063000 15.817000 89.867996 # HT TIP3
127 43 3 -0.834000 16.770000 28.389000 62.581001 # OT TIP3
128 43 2 0.417000 17.153999 27.530001 62.898998 # HT TIP3
129 43 2 0.417000 15.833000 28.156000 62.487999 # HT TIP3
130 44 3 -0.834000 6.321000 7.784000 117.509003 # OT TIP3
131 44 2 0.417000 5.965000 8.262000 118.278000 # HT TIP3
132 44 2 0.417000 6.457000 8.408000 116.870003 # HT TIP3
133 45 3 -0.834000 1.102000 25.384001 65.922997 # OT TIP3
134 45 2 0.417000 0.879000 26.365000 65.904999 # HT TIP3
135 45 2 0.417000 2.095000 25.462999 65.845001 # HT TIP3
136 46 3 -0.834000 4.599000 18.073999 67.569000 # OT TIP3
137 46 2 0.417000 3.603000 18.103001 67.722000 # HT TIP3
138 46 2 0.417000 4.833000 19.055000 67.323997 # HT TIP3
139 47 3 -0.834000 9.192000 13.277000 65.721001 # OT TIP3
140 47 2 0.417000 8.419000 12.778000 65.843002 # HT TIP3
141 47 2 0.417000 9.642000 12.857000 64.935997 # HT TIP3
142 48 3 -0.834000 2.728000 13.031000 90.887001 # OT TIP3
143 48 2 0.417000 3.019000 12.373000 90.230003 # HT TIP3
144 48 2 0.417000 2.882000 13.842000 90.407997 # HT TIP3
145 49 3 -0.834000 14.073000 17.896000 107.514000 # OT TIP3
146 49 2 0.417000 13.129000 18.024000 107.624001 # HT TIP3
147 49 2 0.417000 14.343000 17.448000 108.375000 # HT TIP3
148 50 3 -0.834000 3.793000 8.308000 114.208000 # OT TIP3
149 50 2 0.417000 4.739000 8.643000 114.081001 # HT TIP3
150 50 2 0.417000 3.242000 9.041000 113.859001 # HT TIP3
151 51 3 -0.834000 2.474000 18.768000 62.612000 # OT TIP3
152 51 2 0.417000 2.932000 17.927999 62.603001 # HT TIP3
153 51 2 0.417000 3.231000 19.420000 62.681000 # HT TIP3
154 52 3 -0.834000 12.690000 27.607000 97.760002 # OT TIP3
155 52 2 0.417000 12.145000 28.413000 97.693001 # HT TIP3
156 52 2 0.417000 12.345000 27.219999 98.574997 # HT TIP3
157 53 3 -0.834000 2.429000 21.740000 106.019997 # OT TIP3
158 53 2 0.417000 2.829000 22.583000 106.310997 # HT TIP3
159 53 2 0.417000 1.690000 21.709000 106.634003 # HT TIP3
160 54 3 -0.834000 12.565000 22.184999 112.286003 # OT TIP3
161 54 2 0.417000 12.953000 21.427000 111.768997 # HT TIP3
162 54 2 0.417000 13.264000 22.847000 112.264999 # HT TIP3
163 55 3 -0.834000 13.912000 17.980000 79.022003 # OT TIP3
164 55 2 0.417000 14.044000 17.714001 79.907997 # HT TIP3
165 55 2 0.417000 14.826000 18.131001 78.747002 # HT TIP3
166 56 3 -0.834000 1.737000 24.590000 114.855003 # OT TIP3
167 56 2 0.417000 0.976000 24.966000 114.328003 # HT TIP3
168 56 2 0.417000 2.347000 24.416000 114.193001 # HT TIP3
169 57 3 -0.834000 6.665000 2.974000 88.459000 # OT TIP3
170 57 2 0.417000 6.099000 3.737000 88.249001 # HT TIP3
171 57 2 0.417000 7.475000 3.355000 88.803001 # HT TIP3
172 58 3 -0.834000 9.639000 7.038000 92.301003 # OT TIP3
173 58 2 0.417000 9.204000 7.536000 93.033997 # HT TIP3
174 58 2 0.417000 9.704000 6.138000 92.622002 # HT TIP3
175 59 3 -0.834000 15.714000 6.869000 62.901001 # OT TIP3
176 59 2 0.417000 16.524000 7.158000 62.528000 # HT TIP3
177 59 2 0.417000 15.108000 7.000000 62.070999 # HT TIP3
178 60 3 -0.834000 7.871000 4.098000 94.495003 # OT TIP3
179 60 2 0.417000 7.266000 4.704000 93.893997 # HT TIP3
180 60 2 0.417000 7.746000 4.395000 95.428001 # HT TIP3
181 61 3 -0.834000 12.096000 26.422001 110.688004 # OT TIP3
182 61 2 0.417000 12.163000 26.591000 109.763000 # HT TIP3
183 61 2 0.417000 11.319000 25.806999 110.734001 # HT TIP3
184 62 3 -0.834000 10.235000 13.176000 70.591003 # OT TIP3
185 62 2 0.417000 10.009000 12.398000 70.033997 # HT TIP3
186 62 2 0.417000 9.772000 13.066000 71.417999 # HT TIP3
187 63 3 -0.834000 7.360000 2.374000 80.230003 # OT TIP3
188 63 2 0.417000 7.950000 1.919000 80.928001 # HT TIP3
189 63 2 0.417000 6.448000 2.096000 80.434998 # HT TIP3
190 64 3 -0.834000 10.257000 15.080000 109.133003 # OT TIP3
191 64 2 0.417000 10.358000 14.475000 108.372002 # HT TIP3
192 64 2 0.417000 9.407000 15.496000 108.917999 # HT TIP3
193 65 3 -0.834000 2.224000 3.277000 112.962997 # OT TIP3
194 65 2 0.417000 2.263000 3.798000 113.778999 # HT TIP3
195 65 2 0.417000 1.833000 2.426000 113.261002 # HT TIP3
196 66 3 -0.834000 14.191000 2.219000 63.391998 # OT TIP3
197 66 2 0.417000 14.498000 2.981000 63.821999 # HT TIP3
198 66 2 0.417000 13.512000 1.877000 63.978001 # HT TIP3
199 67 3 -0.834000 9.123000 10.881000 69.226997 # OT TIP3
200 67 2 0.417000 8.483000 11.053000 68.547997 # HT TIP3
201 67 2 0.417000 8.689000 10.361000 69.933998 # HT TIP3
202 68 3 -0.834000 9.378000 12.267000 73.134003 # OT TIP3
203 68 2 0.417000 8.528000 11.861000 73.392998 # HT TIP3
204 68 2 0.417000 9.812000 12.494000 73.959999 # HT TIP3
205 69 3 -0.834000 8.669000 17.458000 108.835999 # OT TIP3
206 69 2 0.417000 8.283000 17.320999 107.974998 # HT TIP3
207 69 2 0.417000 8.064000 18.188000 109.184998 # HT TIP3
208 70 3 -0.834000 10.582000 0.940000 62.452999 # OT TIP3
209 70 2 0.417000 10.667000 1.259000 63.416000 # HT TIP3
210 70 2 0.417000 10.043000 1.623000 62.067001 # HT TIP3
211 71 3 -0.834000 3.703000 4.987000 70.214996 # OT TIP3
212 71 2 0.417000 3.409000 5.572000 69.497002 # HT TIP3
213 71 2 0.417000 4.117000 4.273000 69.726997 # HT TIP3
214 72 3 -0.834000 3.576000 7.765000 79.724998 # OT TIP3
215 72 2 0.417000 3.072000 7.291000 80.363998 # HT TIP3
216 72 2 0.417000 3.904000 8.588000 80.153000 # HT TIP3
217 73 3 -0.834000 3.191000 5.344000 93.013000 # OT TIP3
218 73 2 0.417000 2.560000 4.820000 93.550003 # HT TIP3
219 73 2 0.417000 2.603000 5.810000 92.419998 # HT TIP3
220 74 3 -0.834000 2.140000 8.565000 89.061996 # OT TIP3
221 74 2 0.417000 1.980000 8.344000 88.147003 # HT TIP3
222 74 2 0.417000 2.134000 9.511000 89.133003 # HT TIP3
223 75 3 -0.834000 10.000000 13.393000 106.844002 # OT TIP3
224 75 2 0.417000 10.812000 13.455000 106.412003 # HT TIP3
225 75 2 0.417000 10.081000 12.493000 107.154999 # HT TIP3
226 76 3 -0.834000 1.037000 18.202000 97.489998 # OT TIP3
227 76 2 0.417000 0.759000 19.091999 97.751999 # HT TIP3
228 76 2 0.417000 1.166000 18.249001 96.546997 # HT TIP3
229 77 3 -0.834000 10.278000 8.175000 85.348000 # OT TIP3
230 77 2 0.417000 9.889000 7.926000 86.245003 # HT TIP3
231 77 2 0.417000 10.736000 8.956000 85.586998 # HT TIP3
232 78 3 -0.834000 20.775000 18.462000 114.136002 # OT TIP3
233 78 2 0.417000 20.742001 19.483999 113.942001 # HT TIP3
234 78 2 0.417000 20.141001 18.056999 113.513000 # HT TIP3
235 79 3 -0.834000 10.227000 4.485000 93.205002 # OT TIP3
236 79 2 0.417000 9.356000 4.235000 93.601997 # HT TIP3
237 79 2 0.417000 10.660000 3.625000 93.065002 # HT TIP3
238 80 3 -0.834000 21.065001 16.518000 108.772003 # OT TIP3
239 80 2 0.417000 21.122000 16.458000 107.790001 # HT TIP3
240 80 2 0.417000 21.895000 16.157000 109.098999 # HT TIP3
241 81 3 -0.834000 1.197000 4.774000 115.119003 # OT TIP3
242 81 2 0.417000 1.622000 5.643000 115.152000 # HT TIP3
243 81 2 0.417000 0.490000 4.876000 115.744003 # HT TIP3
244 82 3 -0.834000 3.419000 10.625000 73.557999 # OT TIP3
245 82 2 0.417000 3.898000 11.200000 72.912003 # HT TIP3
246 82 2 0.417000 3.740000 9.730000 73.362000 # HT TIP3
247 83 3 -0.834000 2.678000 6.106000 76.653000 # OT TIP3
248 83 2 0.417000 2.457000 6.461000 77.499001 # HT TIP3
249 83 2 0.417000 3.601000 6.332000 76.526001 # HT TIP3
250 84 3 -0.834000 6.682000 22.570999 62.719002 # OT TIP3
251 84 2 0.417000 5.850000 22.334999 62.247002 # HT TIP3
252 84 2 0.417000 7.159000 21.771999 62.591999 # HT TIP3
253 85 3 -0.834000 4.317000 4.205000 79.818001 # OT TIP3
254 85 2 0.417000 3.442000 4.342000 79.531998 # HT TIP3
255 85 2 0.417000 4.882000 5.027000 79.695000 # HT TIP3
256 86 3 -0.834000 2.644000 20.771999 82.030998 # OT TIP3
257 86 2 0.417000 3.232000 21.121000 81.345001 # HT TIP3
258 86 2 0.417000 1.767000 20.848000 81.538002 # HT TIP3
259 87 3 -0.834000 20.913000 13.916000 71.466003 # OT TIP3
260 87 2 0.417000 21.039000 14.259000 70.617996 # HT TIP3
261 87 2 0.417000 19.919001 14.116000 71.650002 # HT TIP3
262 88 3 -0.834000 11.792000 5.848000 95.246002 # OT TIP3
263 88 2 0.417000 11.463000 5.504000 94.440002 # HT TIP3
264 88 2 0.417000 11.686000 6.779000 95.259003 # HT TIP3
265 89 3 -0.834000 2.087000 9.818000 84.915001 # OT TIP3
266 89 2 0.417000 2.432000 9.875000 84.045998 # HT TIP3
267 89 2 0.417000 2.160000 10.706000 85.186996 # HT TIP3
268 90 3 -0.834000 4.427000 2.170000 93.161003 # OT TIP3
269 90 2 0.417000 4.130000 2.572000 92.389000 # HT TIP3
270 90 2 0.417000 5.030000 2.862000 93.498001 # HT TIP3
271 91 3 -0.834000 14.826000 10.832000 80.537003 # OT TIP3
272 91 2 0.417000 14.462000 10.033000 80.903000 # HT TIP3
273 91 2 0.417000 14.766000 10.720000 79.594002 # HT TIP3
274 92 3 -0.834000 10.789000 10.042000 113.891998 # OT TIP3
275 92 2 0.417000 10.335000 9.650000 114.619003 # HT TIP3
276 92 2 0.417000 11.047000 9.298000 113.365997 # HT TIP3
277 93 3 -0.834000 8.265000 5.756000 117.078003 # OT TIP3
278 93 2 0.417000 8.695000 5.911000 117.889000 # HT TIP3
279 93 2 0.417000 7.585000 6.443000 117.077003 # HT TIP3
280 94 3 -0.834000 26.424000 16.893999 77.207001 # OT TIP3
281 94 2 0.417000 27.247999 17.164000 77.643997 # HT TIP3
282 94 2 0.417000 26.437000 17.348000 76.300003 # HT TIP3
283 95 3 -0.834000 9.176000 28.737000 65.978996 # OT TIP3
284 95 2 0.417000 9.527000 27.877001 65.758003 # HT TIP3
285 95 2 0.417000 9.090000 28.698000 66.932999 # HT TIP3
286 96 3 -0.834000 16.583000 7.654000 83.181000 # OT TIP3
287 96 2 0.417000 15.940000 8.358000 82.848999 # HT TIP3
288 96 2 0.417000 16.273001 6.860000 82.778999 # HT TIP3
289 97 3 -0.834000 23.172001 18.740999 77.188004 # OT TIP3
290 97 2 0.417000 22.500999 18.164000 76.778999 # HT TIP3
291 97 2 0.417000 22.635000 19.281000 77.824997 # HT TIP3
292 98 3 -0.834000 10.405000 1.141000 99.511002 # OT TIP3
293 98 2 0.417000 9.788000 1.750000 99.030998 # HT TIP3
294 98 2 0.417000 10.932000 1.718000 100.105003 # HT TIP3
295 99 3 -0.834000 1.042000 20.947001 97.823997 # OT TIP3
296 99 2 0.417000 0.463000 21.502001 97.254997 # HT TIP3
297 99 2 0.417000 1.832000 20.709999 97.237000 # HT TIP3
298 100 3 -0.834000 2.307000 13.554000 109.053001 # OT TIP3
299 100 2 0.417000 1.933000 13.433000 108.153000 # HT TIP3
300 100 2 0.417000 2.382000 14.501000 109.055000 # HT TIP3
301 101 3 -0.834000 5.758000 13.397000 64.988998 # OT TIP3
302 101 2 0.417000 5.973000 13.319000 64.012001 # HT TIP3
303 101 2 0.417000 5.199000 14.194000 65.056999 # HT TIP3
304 102 3 -0.834000 9.269000 17.306999 116.117996 # OT TIP3
305 102 2 0.417000 9.942000 16.646999 116.014999 # HT TIP3
306 102 2 0.417000 9.313000 17.469000 117.057999 # HT TIP3
307 103 3 -0.834000 28.149000 10.168000 79.572998 # OT TIP3
308 103 2 0.417000 27.469999 10.020000 80.263000 # HT TIP3
309 103 2 0.417000 27.702999 10.719000 78.889000 # HT TIP3
310 104 3 -0.834000 4.852000 1.670000 80.730003 # OT TIP3
311 104 2 0.417000 4.574000 2.494000 80.352997 # HT TIP3
312 104 2 0.417000 4.535000 1.101000 79.971001 # HT TIP3
313 105 3 -0.834000 4.894000 25.566000 75.599998 # OT TIP3
314 105 2 0.417000 3.938000 25.799999 75.596001 # HT TIP3
315 105 2 0.417000 5.058000 25.197001 74.711998 # HT TIP3
316 106 3 -0.834000 11.266000 0.787000 88.064003 # OT TIP3
317 106 2 0.417000 11.135000 1.723000 87.875000 # HT TIP3
318 106 2 0.417000 10.858000 0.392000 87.282997 # HT TIP3
319 107 3 -0.834000 6.880000 13.292000 90.091003 # OT TIP3
320 107 2 0.417000 6.730000 14.186000 90.372002 # HT TIP3
321 107 2 0.417000 6.729000 12.799000 90.880997 # HT TIP3
322 108 3 -0.834000 5.460000 14.044000 68.353996 # OT TIP3
323 108 2 0.417000 6.348000 13.722000 68.607002 # HT TIP3
324 108 2 0.417000 5.308000 14.793000 68.928001 # HT TIP3
325 109 3 -0.834000 1.788000 8.054000 92.237999 # OT TIP3
326 109 2 0.417000 1.078000 8.623000 92.595001 # HT TIP3
327 109 2 0.417000 1.843000 8.343000 91.320999 # HT TIP3
328 110 3 -0.834000 3.648000 27.386999 104.768997 # OT TIP3
329 110 2 0.417000 4.147000 27.555000 105.625000 # HT TIP3
330 110 2 0.417000 3.113000 26.635000 105.060997 # HT TIP3
331 111 3 -0.834000 1.978000 22.242001 61.435001 # OT TIP3
332 111 2 0.417000 1.572000 21.580000 61.992001 # HT TIP3
333 111 2 0.417000 1.798000 23.108999 61.893002 # HT TIP3
334 112 3 -0.834000 9.930000 21.847000 63.400002 # OT TIP3
335 112 2 0.417000 9.901000 22.771000 63.042999 # HT TIP3
336 112 2 0.417000 9.587000 21.254000 62.712002 # HT TIP3
337 113 3 -0.834000 2.644000 10.871000 63.023998 # OT TIP3
338 113 2 0.417000 2.422000 11.053000 63.952999 # HT TIP3
339 113 2 0.417000 3.247000 10.091000 63.016998 # HT TIP3
340 114 3 -0.834000 2.882000 27.934999 82.462997 # OT TIP3
341 114 2 0.417000 2.126000 27.634001 83.010002 # HT TIP3
342 114 2 0.417000 2.441000 28.173000 81.626999 # HT TIP3
343 115 3 -0.834000 8.423000 8.190000 94.504997 # OT TIP3
344 115 2 0.417000 8.583000 7.839000 95.439003 # HT TIP3
345 115 2 0.417000 9.029000 8.934000 94.400002 # HT TIP3
346 116 3 -0.834000 13.685000 10.069000 89.852997 # OT TIP3
347 116 2 0.417000 14.156000 10.691000 90.461998 # HT TIP3
348 116 2 0.417000 12.899000 9.813000 90.364998 # HT TIP3
349 117 3 -0.834000 1.123000 23.968000 63.287998 # OT TIP3
350 117 2 0.417000 1.936000 23.615999 63.740002 # HT TIP3
351 117 2 0.417000 0.553000 24.278000 64.040001 # HT TIP3
352 118 3 -0.834000 13.654000 15.058000 109.046997 # OT TIP3
353 118 2 0.417000 14.620000 14.664000 109.086998 # HT TIP3
354 118 2 0.417000 13.130000 14.510000 109.616997 # HT TIP3
355 119 3 -0.834000 3.911000 19.941000 114.698997 # OT TIP3
356 119 2 0.417000 3.125000 20.468000 114.896004 # HT TIP3
357 119 2 0.417000 4.558000 20.271999 115.331001 # HT TIP3
358 120 3 -0.834000 16.372999 24.020000 109.315002 # OT TIP3
359 120 2 0.417000 17.027000 23.333000 109.544998 # HT TIP3
360 120 2 0.417000 16.837000 24.670000 108.761002 # HT TIP3
361 121 3 -0.834000 13.520000 24.794001 73.491997 # OT TIP3
362 121 2 0.417000 13.191000 25.683001 73.686996 # HT TIP3
363 121 2 0.417000 13.356000 24.218000 74.252998 # HT TIP3
364 122 3 -0.834000 1.295000 28.320999 70.415001 # OT TIP3
365 122 2 0.417000 0.313000 28.281000 70.443001 # HT TIP3
366 122 2 0.417000 1.598000 27.419001 70.663002 # HT TIP3
367 123 3 -0.834000 3.010000 6.485000 67.940002 # OT TIP3
368 123 2 0.417000 2.767000 6.536000 66.960999 # HT TIP3
369 123 2 0.417000 3.710000 7.155000 67.980003 # HT TIP3
370 124 3 -0.834000 7.211000 19.757999 77.735001 # OT TIP3
371 124 2 0.417000 7.817000 20.417999 77.357002 # HT TIP3
372 124 2 0.417000 6.615000 19.436001 76.987999 # HT TIP3
373 125 3 -0.834000 13.636000 24.761000 97.184998 # OT TIP3
374 125 2 0.417000 13.539000 25.464001 97.834000 # HT TIP3
375 125 2 0.417000 13.993000 24.013000 97.643997 # HT TIP3
376 126 3 -0.834000 3.134000 15.343000 94.774002 # OT TIP3
377 126 2 0.417000 2.579000 15.107000 95.523003 # HT TIP3
378 126 2 0.417000 3.907000 14.849000 94.903000 # HT TIP3
379 127 3 -0.834000 23.424000 20.929001 106.024002 # OT TIP3
380 127 2 0.417000 22.410000 20.886000 105.771004 # HT TIP3
381 127 2 0.417000 23.594999 19.962999 106.228996 # HT TIP3
382 128 3 -0.834000 5.479000 21.190001 87.787003 # OT TIP3
383 128 2 0.417000 4.918000 21.906000 88.045998 # HT TIP3
384 128 2 0.417000 5.496000 20.511000 88.507004 # HT TIP3
385 129 3 -0.834000 1.729000 22.711000 111.255997 # OT TIP3
386 129 2 0.417000 1.935000 23.628000 111.005997 # HT TIP3
387 129 2 0.417000 2.659000 22.351000 111.425003 # HT TIP3
388 130 3 -0.834000 16.492001 22.702999 64.181999 # OT TIP3
389 130 2 0.417000 16.663000 23.181000 65.022003 # HT TIP3
390 130 2 0.417000 16.726999 23.365000 63.486000 # HT TIP3
391 131 3 -0.834000 13.840000 22.520000 63.147999 # OT TIP3
392 131 2 0.417000 13.265000 22.775000 63.862000 # HT TIP3
393 131 2 0.417000 14.728000 22.704000 63.473999 # HT TIP3
394 132 3 -0.834000 9.825000 28.841000 90.551003 # OT TIP3
395 132 2 0.417000 10.715000 28.718000 90.085999 # HT TIP3
396 132 2 0.417000 9.497000 27.971001 90.639000 # HT TIP3
397 133 3 -0.834000 8.689000 18.465000 91.391998 # OT TIP3
398 133 2 0.417000 8.268000 18.070000 90.610001 # HT TIP3
399 133 2 0.417000 8.717000 17.750999 92.041000 # HT TIP3
400 134 3 -0.834000 10.738000 21.537001 101.408997 # OT TIP3
401 134 2 0.417000 11.146000 21.040001 100.667999 # HT TIP3
402 134 2 0.417000 9.877000 21.780001 101.112000 # HT TIP3
403 135 3 -0.834000 15.626000 27.268000 91.802002 # OT TIP3
404 135 2 0.417000 14.753000 27.035999 91.328003 # HT TIP3
405 135 2 0.417000 15.368000 27.920000 92.432999 # HT TIP3
406 136 3 -0.834000 3.571000 19.274000 103.586998 # OT TIP3
407 136 2 0.417000 3.758000 18.372999 103.388000 # HT TIP3
408 136 2 0.417000 3.620000 19.729000 102.712997 # HT TIP3
409 137 3 -0.834000 8.481000 23.764999 68.037003 # OT TIP3
410 137 2 0.417000 9.307000 24.237000 68.102997 # HT TIP3
411 137 2 0.417000 7.817000 24.417000 67.711998 # HT TIP3
412 138 3 -0.834000 11.229000 15.050000 66.117996 # OT TIP3
413 138 2 0.417000 10.350000 14.841000 65.807999 # HT TIP3
414 138 2 0.417000 11.701000 14.179000 66.116997 # HT TIP3
415 139 3 -0.834000 19.959000 25.851999 77.848999 # OT TIP3
416 139 2 0.417000 20.482000 26.646000 77.899002 # HT TIP3
417 139 2 0.417000 19.034000 26.158001 77.780998 # HT TIP3
418 140 3 -0.834000 2.386000 25.752001 78.594002 # OT TIP3
419 140 2 0.417000 2.474000 26.223000 77.793999 # HT TIP3
420 140 2 0.417000 1.572000 26.169001 79.003998 # HT TIP3
421 141 3 -0.834000 1.983000 25.966999 86.732002 # OT TIP3
422 141 2 0.417000 2.880000 26.207001 86.825996 # HT TIP3
423 141 2 0.417000 1.785000 25.527000 87.526001 # HT TIP3
424 142 3 -0.834000 23.631001 21.919001 78.469002 # OT TIP3
425 142 2 0.417000 23.437000 22.816000 78.856003 # HT TIP3
426 142 2 0.417000 22.962999 21.285000 78.849998 # HT TIP3
427 143 3 -0.834000 15.718000 17.591000 109.969002 # OT TIP3
428 143 2 0.417000 16.384001 17.358999 109.356003 # HT TIP3
429 143 2 0.417000 16.284000 18.122000 110.535004 # HT TIP3
430 144 3 -0.834000 0.960000 22.281000 116.374001 # OT TIP3
431 144 2 0.417000 1.291000 22.410999 117.263000 # HT TIP3
432 144 2 0.417000 1.254000 23.049999 115.890999 # HT TIP3
433 145 3 -0.834000 16.806999 17.469999 81.405998 # OT TIP3
434 145 2 0.417000 17.525999 17.306000 80.695000 # HT TIP3
435 145 2 0.417000 16.330000 16.597000 81.482002 # HT TIP3
436 146 3 -0.834000 4.090000 23.618000 86.467003 # OT TIP3
437 146 2 0.417000 4.411000 23.983999 87.301003 # HT TIP3
438 146 2 0.417000 3.135000 23.496000 86.648003 # HT TIP3
439 147 3 -0.834000 4.535000 24.709999 112.774002 # OT TIP3
440 147 2 0.417000 4.975000 25.436001 113.220001 # HT TIP3
441 147 2 0.417000 3.876000 25.191000 112.167000 # HT TIP3
442 148 3 -0.834000 1.047000 4.769000 70.978996 # OT TIP3
443 148 2 0.417000 0.726000 3.868000 70.738998 # HT TIP3
444 148 2 0.417000 1.805000 4.885000 70.389999 # HT TIP3
445 149 3 -0.834000 5.656000 5.688000 76.445999 # OT TIP3
446 149 2 0.417000 6.184000 6.364000 76.861000 # HT TIP3
447 149 2 0.417000 5.892000 4.922000 76.936996 # HT TIP3
448 150 3 -0.834000 2.981000 2.848000 101.552002 # OT TIP3
449 150 2 0.417000 2.898000 1.890000 101.393997 # HT TIP3
450 150 2 0.417000 3.670000 2.957000 102.269997 # HT TIP3
451 151 3 -0.834000 1.039000 8.569000 117.462997 # OT TIP3
452 151 2 0.417000 1.202000 9.285000 116.809998 # HT TIP3
453 151 2 0.417000 1.673000 7.905000 117.250999 # HT TIP3
454 152 3 -0.834000 11.004000 7.021000 76.282997 # OT TIP3
455 152 2 0.417000 11.201000 7.212000 77.236000 # HT TIP3
456 152 2 0.417000 10.427000 6.272000 76.398003 # HT TIP3
457 153 3 -0.834000 2.489000 2.006000 85.278000 # OT TIP3
458 153 2 0.417000 1.764000 1.391000 85.110001 # HT TIP3
459 153 2 0.417000 2.425000 2.105000 86.300003 # HT TIP3
460 154 3 -0.834000 12.063000 19.914000 70.358002 # OT TIP3
461 154 2 0.417000 12.579000 20.705000 70.265999 # HT TIP3
462 154 2 0.417000 12.735000 19.205000 70.301003 # HT TIP3
463 155 3 -0.834000 8.164000 10.903000 89.349998 # OT TIP3
464 155 2 0.417000 7.769000 11.575000 89.906998 # HT TIP3
465 155 2 0.417000 7.454000 10.292000 89.182999 # HT TIP3
466 156 3 -0.834000 4.947000 6.932000 97.933998 # OT TIP3
467 156 2 0.417000 4.142000 6.476000 97.598000 # HT TIP3
468 156 2 0.417000 4.930000 7.786000 97.489998 # HT TIP3
469 157 3 -0.834000 10.747000 6.744000 115.268997 # OT TIP3
470 157 2 0.417000 9.835000 6.713000 115.117996 # HT TIP3
471 157 2 0.417000 10.869000 6.350000 116.066002 # HT TIP3
472 158 3 -0.834000 11.193000 8.716000 90.714996 # OT TIP3
473 158 2 0.417000 11.039000 8.087000 89.938004 # HT TIP3
474 158 2 0.417000 10.661000 8.271000 91.374001 # HT TIP3
475 159 3 -0.834000 7.327000 2.524000 73.810997 # OT TIP3
476 159 2 0.417000 6.485000 3.101000 73.934998 # HT TIP3
477 159 2 0.417000 6.992000 1.703000 74.141998 # HT TIP3
478 160 3 -0.834000 18.112000 6.071000 66.276001 # OT TIP3
479 160 2 0.417000 17.520000 6.616000 65.779999 # HT TIP3
480 160 2 0.417000 17.851000 5.169000 66.069000 # HT TIP3
481 161 3 -0.834000 4.328000 7.999000 73.176003 # OT TIP3
482 161 2 0.417000 4.877000 7.493000 72.538002 # HT TIP3
483 161 2 0.417000 3.471000 7.620000 72.944000 # HT TIP3
484 162 3 -0.834000 11.349000 10.180000 87.281998 # OT TIP3
485 162 2 0.417000 11.695000 9.781000 88.055000 # HT TIP3
486 162 2 0.417000 12.205000 10.395000 86.782997 # HT TIP3
487 163 3 -0.834000 22.433001 3.186000 80.242996 # OT TIP3
488 163 2 0.417000 23.229000 2.896000 80.662003 # HT TIP3
489 163 2 0.417000 21.785999 3.128000 80.960999 # HT TIP3
490 164 3 -0.834000 21.275000 7.600000 90.975998 # OT TIP3
491 164 2 0.417000 22.080999 7.030000 90.819000 # HT TIP3
492 164 2 0.417000 21.589001 8.119000 91.705002 # HT TIP3
493 165 3 -0.834000 12.821000 13.316000 107.124001 # OT TIP3
494 165 2 0.417000 13.111000 13.941000 107.934998 # HT TIP3
495 165 2 0.417000 13.565000 12.684000 107.046997 # HT TIP3
496 166 3 -0.834000 3.379000 6.019000 112.834999 # OT TIP3
497 166 2 0.417000 2.400000 6.078000 112.786003 # HT TIP3
498 166 2 0.417000 3.579000 6.834000 113.362000 # HT TIP3
499 167 3 -0.834000 12.793000 9.751000 62.615002 # OT TIP3
500 167 2 0.417000 13.208000 10.140000 63.387001 # HT TIP3
501 167 2 0.417000 13.282000 8.941000 62.438999 # HT TIP3
502 168 3 -0.834000 11.477000 9.910000 68.328003 # OT TIP3
503 168 2 0.417000 10.743000 10.472000 68.453003 # HT TIP3
504 168 2 0.417000 11.166000 9.088000 68.697998 # HT TIP3
505 169 3 -0.834000 2.138000 3.506000 75.797997 # OT TIP3
506 169 2 0.417000 2.501000 4.381000 75.945000 # HT TIP3
507 169 2 0.417000 2.417000 3.299000 74.821999 # HT TIP3
508 170 3 -0.834000 2.199000 11.924000 78.292999 # OT TIP3
509 170 2 0.417000 1.439000 11.978000 77.705002 # HT TIP3
510 170 2 0.417000 2.558000 12.835000 78.254997 # HT TIP3