LAMMPS data file. CGCMM style. atom_style full generated by VMD/TopoTools v1.1 on Mon Jun 18 09:53:52 +0800 2012
 903 atoms
 602 bonds
 301 angles
 0 dihedrals
 0 impropers
 2 atom types
 1 bond types
 1 angle types
 0 dihedral types
 0 improper types
 1.180501 29.180501  xlo xhi
 0.904000 28.904000  ylo yhi
 61.137499 74.137499  zlo zhi

# Pair Coeffs
#
# 1  HT
# 2  OT

# Bond Coeffs
#
# 1  

# Angle Coeffs
#
# 1  unknown

 Masses

 1 1.007940 # HT
 2 15.999400 # OT

 Atoms

1 1 2 -0.834000 6.186000 17.695999 73.071999 # OT TIP3
2 1 1 0.417000 7.083000 17.979000 72.816002 # HT TIP3
3 1 1 0.417000 6.337000 16.832001 73.489998 # HT TIP3
4 2 2 -0.834000 4.786000 17.318001 62.310001 # OT TIP3
5 2 1 0.417000 4.781000 16.388000 62.195999 # HT TIP3
6 2 1 0.417000 5.528000 17.580000 61.780998 # HT TIP3
7 3 2 -0.834000 17.125999 15.701000 65.577003 # OT TIP3
8 3 1 0.417000 17.070000 15.272000 64.725998 # HT TIP3
9 3 1 0.417000 17.805000 16.454000 65.445000 # HT TIP3
10 4 2 -0.834000 3.750000 9.844000 70.628998 # OT TIP3
11 4 1 0.417000 3.110000 9.290000 70.998001 # HT TIP3
12 4 1 0.417000 3.164000 10.245000 69.961998 # HT TIP3
13 5 2 -0.834000 11.674000 9.909000 65.986000 # OT TIP3
14 5 1 0.417000 11.998000 9.871000 66.931999 # HT TIP3
15 5 1 0.417000 10.748000 10.270000 66.074997 # HT TIP3
16 6 2 -0.834000 2.661000 7.681000 62.943001 # OT TIP3
17 6 1 0.417000 2.943000 6.739000 62.980999 # HT TIP3
18 6 1 0.417000 1.778000 7.599000 62.483002 # HT TIP3
19 7 2 -0.834000 5.821000 21.603001 72.238998 # OT TIP3
20 7 1 0.417000 6.466000 21.782000 72.962997 # HT TIP3
21 7 1 0.417000 6.384000 21.914000 71.456001 # HT TIP3
22 8 2 -0.834000 6.608000 24.917999 73.959000 # OT TIP3
23 8 1 0.417000 5.840000 24.622000 73.544998 # HT TIP3
24 8 1 0.417000 7.037000 25.336000 73.208000 # HT TIP3
25 9 2 -0.834000 11.426000 8.604000 63.403999 # OT TIP3
26 9 1 0.417000 11.761000 9.401000 62.993999 # HT TIP3
27 9 1 0.417000 11.248000 8.889000 64.307999 # HT TIP3
28 10 2 -0.834000 23.572001 7.242000 64.477997 # OT TIP3
29 10 1 0.417000 22.705000 6.845000 64.830002 # HT TIP3
30 10 1 0.417000 23.951000 6.659000 63.858002 # HT TIP3
31 11 2 -0.834000 11.926000 6.365000 62.018002 # OT TIP3
32 11 1 0.417000 12.138000 5.769000 62.754002 # HT TIP3
33 11 1 0.417000 11.657000 7.212000 62.493000 # HT TIP3
34 12 2 -0.834000 1.802000 26.084000 66.523003 # OT TIP3
35 12 1 0.417000 1.579000 27.065001 66.504997 # HT TIP3
36 12 1 0.417000 2.795000 26.163000 66.445000 # HT TIP3
37 13 2 -0.834000 5.299000 18.774000 68.168999 # OT TIP3
38 13 1 0.417000 4.303000 18.802999 68.321999 # HT TIP3
39 13 1 0.417000 5.533000 19.754999 67.924004 # HT TIP3
40 14 2 -0.834000 9.892000 13.977000 66.320999 # OT TIP3
41 14 1 0.417000 9.119000 13.478000 66.443001 # HT TIP3
42 14 1 0.417000 10.342000 13.557000 65.536003 # HT TIP3
43 15 2 -0.834000 3.174000 19.468000 63.212002 # OT TIP3
44 15 1 0.417000 3.632000 18.628000 63.202999 # HT TIP3
45 15 1 0.417000 3.931000 20.120001 63.280998 # HT TIP3
46 16 2 -0.834000 16.414000 7.569000 63.500999 # OT TIP3
47 16 1 0.417000 17.224001 7.858000 63.127998 # HT TIP3
48 16 1 0.417000 15.808000 7.700000 62.671001 # HT TIP3
49 17 2 -0.834000 10.935000 13.876000 71.191002 # OT TIP3
50 17 1 0.417000 10.709000 13.098000 70.634003 # HT TIP3
51 17 1 0.417000 10.472000 13.766000 72.017998 # HT TIP3
52 18 2 -0.834000 14.891000 2.919000 63.992001 # OT TIP3
53 18 1 0.417000 15.198000 3.681000 64.421997 # HT TIP3
54 18 1 0.417000 14.212000 2.577000 64.578003 # HT TIP3
55 19 2 -0.834000 9.823000 11.581000 69.827003 # OT TIP3
56 19 1 0.417000 9.183000 11.753000 69.148003 # HT TIP3
57 19 1 0.417000 9.389000 11.061000 70.533997 # HT TIP3
58 20 2 -0.834000 11.282000 1.640000 63.053001 # OT TIP3
59 20 1 0.417000 11.367000 1.959000 64.015999 # HT TIP3
60 20 1 0.417000 10.743000 2.323000 62.667000 # HT TIP3
61 21 2 -0.834000 5.618000 9.125000 68.777000 # OT TIP3
62 21 1 0.417000 6.405000 8.919000 69.314003 # HT TIP3
63 21 1 0.417000 5.002000 9.458000 69.421997 # HT TIP3
64 22 2 -0.834000 4.403000 5.687000 70.815002 # OT TIP3
65 22 1 0.417000 4.109000 6.272000 70.097000 # HT TIP3
66 22 1 0.417000 4.817000 4.973000 70.327003 # HT TIP3
67 23 2 -0.834000 7.382000 23.271000 63.319000 # OT TIP3
68 23 1 0.417000 6.550000 23.035000 62.847000 # HT TIP3
69 23 1 0.417000 7.859000 22.472000 63.192001 # HT TIP3
70 24 2 -0.834000 21.613001 14.616000 72.066002 # OT TIP3
71 24 1 0.417000 21.739000 14.959000 71.218002 # HT TIP3
72 24 1 0.417000 20.618999 14.816000 72.250000 # HT TIP3
73 25 2 -0.834000 6.458000 14.097000 65.588997 # OT TIP3
74 25 1 0.417000 6.673000 14.019000 64.612000 # HT TIP3
75 25 1 0.417000 5.899000 14.894000 65.656998 # HT TIP3
76 26 2 -0.834000 6.160000 14.744000 68.954002 # OT TIP3
77 26 1 0.417000 7.048000 14.422000 69.207001 # HT TIP3
78 26 1 0.417000 6.008000 15.493000 69.528000 # HT TIP3
79 27 2 -0.834000 2.678000 22.941999 62.035000 # OT TIP3
80 27 1 0.417000 2.272000 22.280001 62.591999 # HT TIP3
81 27 1 0.417000 2.498000 23.809000 62.493000 # HT TIP3
82 28 2 -0.834000 10.630000 22.547001 64.000000 # OT TIP3
83 28 1 0.417000 10.601000 23.471001 63.643002 # HT TIP3
84 28 1 0.417000 10.287000 21.954000 63.312000 # HT TIP3
85 29 2 -0.834000 3.344000 11.571000 63.624001 # OT TIP3
86 29 1 0.417000 3.122000 11.753000 64.553001 # HT TIP3
87 29 1 0.417000 3.947000 10.791000 63.617001 # HT TIP3
88 30 2 -0.834000 1.823000 24.667999 63.888000 # OT TIP3
89 30 1 0.417000 2.636000 24.316000 64.339996 # HT TIP3
90 30 1 0.417000 1.253000 24.978001 64.639999 # HT TIP3
91 31 2 -0.834000 3.710000 7.185000 68.540001 # OT TIP3
92 31 1 0.417000 3.467000 7.236000 67.560997 # HT TIP3
93 31 1 0.417000 4.410000 7.855000 68.580002 # HT TIP3
94 32 2 -0.834000 17.191999 23.403000 64.781998 # OT TIP3
95 32 1 0.417000 17.363001 23.881001 65.622002 # HT TIP3
96 32 1 0.417000 17.427000 24.065001 64.085999 # HT TIP3
97 33 2 -0.834000 14.540000 23.219999 63.748001 # OT TIP3
98 33 1 0.417000 13.965000 23.475000 64.461998 # HT TIP3
99 33 1 0.417000 15.428000 23.403999 64.073997 # HT TIP3
100 34 2 -0.834000 9.181000 24.465000 68.637001 # OT TIP3
101 34 1 0.417000 10.007000 24.937000 68.703003 # HT TIP3
102 34 1 0.417000 8.517000 25.117001 68.311996 # HT TIP3
103 35 2 -0.834000 11.929000 15.750000 66.718002 # OT TIP3
104 35 1 0.417000 11.050000 15.541000 66.407997 # HT TIP3
105 35 1 0.417000 12.401000 14.879000 66.717003 # HT TIP3
106 36 2 -0.834000 1.747000 5.469000 71.579002 # OT TIP3
107 36 1 0.417000 1.426000 4.568000 71.338997 # HT TIP3
108 36 1 0.417000 2.505000 5.585000 70.989998 # HT TIP3
109 37 2 -0.834000 27.896999 13.094000 61.679001 # OT TIP3
110 37 1 0.417000 27.514000 12.280000 61.304001 # HT TIP3
111 37 1 0.417000 28.875000 12.927000 61.553001 # HT TIP3
112 38 2 -0.834000 12.763000 20.614000 70.958000 # OT TIP3
113 38 1 0.417000 13.279000 21.405001 70.865997 # HT TIP3
114 38 1 0.417000 13.435000 19.905001 70.901001 # HT TIP3
115 39 2 -0.834000 18.812000 6.771000 66.875999 # OT TIP3
116 39 1 0.417000 18.219999 7.316000 66.379997 # HT TIP3
117 39 1 0.417000 18.551001 5.869000 66.668999 # HT TIP3
118 40 2 -0.834000 5.028000 8.699000 73.776001 # OT TIP3
119 40 1 0.417000 5.577000 8.193000 73.138000 # HT TIP3
120 40 1 0.417000 4.171000 8.320000 73.543999 # HT TIP3
121 41 2 -0.834000 13.493000 10.451000 63.215000 # OT TIP3
122 41 1 0.417000 13.908000 10.840000 63.987000 # HT TIP3
123 41 1 0.417000 13.982000 9.641000 63.039001 # HT TIP3
124 42 2 -0.834000 12.177000 10.610000 68.928001 # OT TIP3
125 42 1 0.417000 11.443000 11.172000 69.053001 # HT TIP3
126 42 1 0.417000 11.866000 9.788000 69.297997 # HT TIP3
127 43 2 -0.834000 19.441000 17.134001 64.839996 # OT TIP3
128 43 1 0.417000 19.610001 17.488001 63.967999 # HT TIP3
129 43 1 0.417000 20.113001 16.407000 64.960999 # HT TIP3
130 44 2 -0.834000 16.430000 4.274000 68.406998 # OT TIP3
131 44 1 0.417000 16.458000 3.741000 69.156998 # HT TIP3
132 44 1 0.417000 16.933001 3.740000 67.769997 # HT TIP3
133 45 2 -0.834000 14.134000 5.535000 67.558998 # OT TIP3
134 45 1 0.417000 13.434000 4.932000 67.938004 # HT TIP3
135 45 1 0.417000 14.959000 5.162000 67.964996 # HT TIP3
136 46 2 -0.834000 17.007999 18.797001 72.410004 # OT TIP3
137 46 1 0.417000 17.695000 18.702000 71.683998 # HT TIP3
138 46 1 0.417000 16.186001 18.521000 71.942001 # HT TIP3
139 47 2 -0.834000 8.830000 20.750999 62.994999 # OT TIP3
140 47 1 0.417000 8.257000 20.870001 62.247002 # HT TIP3
141 47 1 0.417000 9.329000 19.923000 62.884998 # HT TIP3
142 48 2 -0.834000 14.663000 27.431999 67.528999 # OT TIP3
143 48 1 0.417000 14.851000 27.261000 68.482002 # HT TIP3
144 48 1 0.417000 14.355000 28.375000 67.531998 # HT TIP3
145 49 2 -0.834000 16.027000 12.249000 70.806000 # OT TIP3
146 49 1 0.417000 16.636000 11.953000 70.103996 # HT TIP3
147 49 1 0.417000 15.929000 13.194000 70.544998 # HT TIP3
148 50 2 -0.834000 14.912000 27.462000 63.285999 # OT TIP3
149 50 1 0.417000 14.667000 28.388000 63.539001 # HT TIP3
150 50 1 0.417000 14.488000 26.916000 64.000000 # HT TIP3
151 51 2 -0.834000 15.603000 19.110001 64.212997 # OT TIP3
152 51 1 0.417000 15.275000 18.655001 64.962997 # HT TIP3
153 51 1 0.417000 14.842000 19.606001 63.877998 # HT TIP3
154 52 2 -0.834000 5.753000 21.139000 66.474998 # OT TIP3
155 52 1 0.417000 5.769000 22.052999 66.846001 # HT TIP3
156 52 1 0.417000 6.663000 21.031000 66.200996 # HT TIP3
157 53 2 -0.834000 3.369000 20.620001 71.837997 # OT TIP3
158 53 1 0.417000 3.051000 20.424999 72.700996 # HT TIP3
159 53 1 0.417000 4.347000 20.716999 71.922997 # HT TIP3
160 54 2 -0.834000 16.158001 16.218000 62.452999 # OT TIP3
161 54 1 0.417000 16.285999 17.122999 62.160000 # HT TIP3
162 54 1 0.417000 15.175000 16.219000 62.587002 # HT TIP3
163 55 2 -0.834000 8.929000 10.601000 65.321999 # OT TIP3
164 55 1 0.417000 8.364000 11.340000 64.912003 # HT TIP3
165 55 1 0.417000 8.318000 10.011000 65.820000 # HT TIP3
166 56 2 -0.834000 11.209000 27.934999 62.973000 # OT TIP3
167 56 1 0.417000 10.397000 28.288000 62.520000 # HT TIP3
168 56 1 0.417000 11.523000 28.672001 63.624001 # HT TIP3
169 57 2 -0.834000 14.755000 26.794001 70.519997 # OT TIP3
170 57 1 0.417000 13.826000 26.669001 70.766998 # HT TIP3
171 57 1 0.417000 15.148000 26.750999 71.374001 # HT TIP3
172 58 2 -0.834000 7.703000 27.593000 65.848000 # OT TIP3
173 58 1 0.417000 8.407000 28.207001 65.761002 # HT TIP3
174 58 1 0.417000 7.716000 27.068001 65.013000 # HT TIP3
175 59 2 -0.834000 22.371000 18.885000 66.875000 # OT TIP3
176 59 1 0.417000 21.731001 18.190001 67.200996 # HT TIP3
177 59 1 0.417000 23.157000 18.771000 67.378998 # HT TIP3
178 60 2 -0.834000 22.052000 15.490000 65.292000 # OT TIP3
179 60 1 0.417000 21.664000 15.025000 66.009003 # HT TIP3
180 60 1 0.417000 22.791000 16.006001 65.747002 # HT TIP3
181 61 2 -0.834000 4.320000 2.439000 64.693001 # OT TIP3
182 61 1 0.417000 4.018000 2.263000 63.794998 # HT TIP3
183 61 1 0.417000 5.218000 2.737000 64.532997 # HT TIP3
184 62 2 -0.834000 17.096001 9.405000 71.627998 # OT TIP3
185 62 1 0.417000 17.084999 10.390000 71.714996 # HT TIP3
186 62 1 0.417000 17.077000 9.348000 70.621002 # HT TIP3
187 63 2 -0.834000 19.479000 4.089000 62.377998 # OT TIP3
188 63 1 0.417000 18.535999 4.208000 62.574001 # HT TIP3
189 63 1 0.417000 19.601999 3.140000 62.196999 # HT TIP3
190 64 2 -0.834000 16.528999 6.982000 69.518997 # OT TIP3
191 64 1 0.417000 17.398001 6.632000 69.811996 # HT TIP3
192 64 1 0.417000 16.223000 6.333000 68.866997 # HT TIP3
193 65 2 -0.834000 5.539000 3.605000 69.294998 # OT TIP3
194 65 1 0.417000 6.460000 3.702000 69.123001 # HT TIP3
195 65 1 0.417000 5.434000 2.616000 69.362999 # HT TIP3
196 66 2 -0.834000 21.028000 8.080000 70.022003 # OT TIP3
197 66 1 0.417000 21.674999 8.715000 70.082001 # HT TIP3
198 66 1 0.417000 20.385000 8.573000 69.527000 # HT TIP3
199 67 2 -0.834000 9.883000 22.580999 66.760002 # OT TIP3
200 67 1 0.417000 9.705000 23.232000 67.445999 # HT TIP3
201 67 1 0.417000 10.357000 23.007999 66.077003 # HT TIP3
202 68 2 -0.834000 20.399000 13.364000 62.980000 # OT TIP3
203 68 1 0.417000 20.715000 12.499000 62.598000 # HT TIP3
204 68 1 0.417000 20.091000 13.059000 63.846001 # HT TIP3
205 69 2 -0.834000 25.165001 7.819000 66.775002 # OT TIP3
206 69 1 0.417000 24.867001 7.610000 65.873001 # HT TIP3
207 69 1 0.417000 24.362000 8.177000 67.250999 # HT TIP3
208 70 2 -0.834000 13.793000 14.364000 73.167999 # OT TIP3
209 70 1 0.417000 13.787000 14.548000 72.223000 # HT TIP3
210 70 1 0.417000 12.995000 14.794000 73.399002 # HT TIP3
211 71 2 -0.834000 7.667000 8.547000 70.646004 # OT TIP3
212 71 1 0.417000 7.103000 7.975000 71.295998 # HT TIP3
213 71 1 0.417000 8.558000 8.292000 71.045998 # HT TIP3
214 72 2 -0.834000 11.129000 18.485001 67.550003 # OT TIP3
215 72 1 0.417000 10.231000 18.466999 67.919998 # HT TIP3
216 72 1 0.417000 11.108000 17.702000 66.985001 # HT TIP3
217 73 2 -0.834000 5.654000 6.717000 66.023003 # OT TIP3
218 73 1 0.417000 6.059000 6.126000 65.394997 # HT TIP3
219 73 1 0.417000 6.409000 6.785000 66.634003 # HT TIP3
220 74 2 -0.834000 13.336000 15.905000 70.349998 # OT TIP3
221 74 1 0.417000 12.849000 16.587999 69.883003 # HT TIP3
222 74 1 0.417000 12.568000 15.375000 70.769997 # HT TIP3
223 75 2 -0.834000 4.686000 9.353000 64.401001 # OT TIP3
224 75 1 0.417000 5.494000 8.930000 64.084000 # HT TIP3
225 75 1 0.417000 4.041000 8.727000 64.196999 # HT TIP3
226 76 2 -0.834000 14.263000 24.513000 68.325996 # OT TIP3
227 76 1 0.417000 15.083000 24.900000 68.689003 # HT TIP3
228 76 1 0.417000 14.669000 23.802999 67.738998 # HT TIP3
229 77 2 -0.834000 5.289000 26.674999 62.474998 # OT TIP3
230 77 1 0.417000 6.014000 26.297001 62.909000 # HT TIP3
231 77 1 0.417000 4.628000 26.027000 62.513000 # HT TIP3
232 78 2 -0.834000 11.030000 12.441000 64.433998 # OT TIP3
233 78 1 0.417000 10.274000 11.827000 64.421997 # HT TIP3
234 78 1 0.417000 11.533000 12.362000 63.660999 # HT TIP3
235 79 2 -0.834000 11.550000 10.544000 72.315002 # OT TIP3
236 79 1 0.417000 11.055000 11.343000 72.396004 # HT TIP3
237 79 1 0.417000 12.460000 10.846000 72.336998 # HT TIP3
238 80 2 -0.834000 14.068000 3.914000 71.149002 # OT TIP3
239 80 1 0.417000 13.803000 3.473000 70.294998 # HT TIP3
240 80 1 0.417000 15.010000 3.849000 71.112000 # HT TIP3
241 81 2 -0.834000 6.450000 10.067000 66.336998 # OT TIP3
242 81 1 0.417000 5.722000 9.840000 65.710999 # HT TIP3
243 81 1 0.417000 5.939000 9.770000 67.116997 # HT TIP3
244 82 2 -0.834000 21.254999 26.983000 64.128998 # OT TIP3
245 82 1 0.417000 21.472000 27.410999 64.954002 # HT TIP3
246 82 1 0.417000 20.868000 26.098000 64.325996 # HT TIP3
247 83 2 -0.834000 4.248000 23.875999 64.700996 # OT TIP3
248 83 1 0.417000 3.662000 23.334000 65.248001 # HT TIP3
249 83 1 0.417000 5.106000 23.410000 64.780998 # HT TIP3
250 84 2 -0.834000 9.943000 20.607000 70.392998 # OT TIP3
251 84 1 0.417000 10.890000 20.666000 70.174004 # HT TIP3
252 84 1 0.417000 9.551000 20.202000 69.585999 # HT TIP3
253 85 2 -0.834000 22.892000 10.490000 63.953999 # OT TIP3
254 85 1 0.417000 23.662001 9.965000 64.007004 # HT TIP3
255 85 1 0.417000 22.278999 9.910000 63.557999 # HT TIP3
256 86 2 -0.834000 7.901000 22.556999 70.325996 # OT TIP3
257 86 1 0.417000 8.410000 21.743999 70.384003 # HT TIP3
258 86 1 0.417000 8.474000 23.077000 69.759003 # HT TIP3
259 87 2 -0.834000 7.857000 12.138000 67.829002 # OT TIP3
260 87 1 0.417000 7.107000 12.750000 67.800003 # HT TIP3
261 87 1 0.417000 7.480000 11.387000 67.352997 # HT TIP3
262 88 2 -0.834000 11.309000 22.500000 72.481003 # OT TIP3
263 88 1 0.417000 12.014000 21.927999 72.184998 # HT TIP3
264 88 1 0.417000 10.595000 21.961000 72.182999 # HT TIP3
265 89 2 -0.834000 17.688999 27.229000 69.289001 # OT TIP3
266 89 1 0.417000 18.191999 26.791000 70.000000 # HT TIP3
267 89 1 0.417000 17.002001 27.674000 69.851997 # HT TIP3
268 90 2 -0.834000 13.113000 1.921000 65.942001 # OT TIP3
269 90 1 0.417000 13.819000 1.635000 66.561996 # HT TIP3
270 90 1 0.417000 12.814000 2.896000 66.223000 # HT TIP3
271 91 2 -0.834000 3.421000 4.775000 66.057999 # OT TIP3
272 91 1 0.417000 3.684000 3.934000 65.652000 # HT TIP3
273 91 1 0.417000 4.219000 5.340000 66.047997 # HT TIP3
274 92 2 -0.834000 20.819000 2.185000 67.420998 # OT TIP3
275 92 1 0.417000 21.354000 2.643000 66.751999 # HT TIP3
276 92 1 0.417000 20.767000 1.232000 67.098999 # HT TIP3
277 93 2 -0.834000 8.061000 25.972000 63.542999 # OT TIP3
278 93 1 0.417000 8.985000 26.260000 63.437000 # HT TIP3
279 93 1 0.417000 8.151000 25.003000 63.445000 # HT TIP3
280 94 2 -0.834000 6.141000 2.611000 61.499001 # OT TIP3
281 94 1 0.417000 5.697000 2.110000 62.234001 # HT TIP3
282 94 1 0.417000 7.031000 2.302000 61.585999 # HT TIP3
283 95 2 -0.834000 18.931000 15.372000 72.594002 # OT TIP3
284 95 1 0.417000 18.010000 15.424000 72.287003 # HT TIP3
285 95 1 0.417000 18.926001 15.956000 73.399002 # HT TIP3
286 96 2 -0.834000 3.509000 4.505000 73.910004 # OT TIP3
287 96 1 0.417000 3.114000 5.138000 73.315002 # HT TIP3
288 96 1 0.417000 3.715000 3.712000 73.383003 # HT TIP3
289 97 2 -0.834000 6.461000 7.754000 62.943001 # OT TIP3
290 97 1 0.417000 7.412000 7.627000 63.018002 # HT TIP3
291 97 1 0.417000 6.209000 6.956000 62.433998 # HT TIP3
292 98 2 -0.834000 23.523001 3.158000 62.498001 # OT TIP3
293 98 1 0.417000 23.431999 3.072000 61.546001 # HT TIP3
294 98 1 0.417000 23.118000 2.321000 62.861000 # HT TIP3
295 99 2 -0.834000 12.780000 14.509000 61.983002 # OT TIP3
296 99 1 0.417000 13.311000 14.422000 62.793999 # HT TIP3
297 99 1 0.417000 13.379000 14.816000 61.299999 # HT TIP3
298 100 2 -0.834000 14.410000 14.796000 64.206001 # OT TIP3
299 100 1 0.417000 13.860000 14.342000 64.952003 # HT TIP3
300 100 1 0.417000 15.378000 14.624000 64.486000 # HT TIP3
301 101 2 -0.834000 8.314000 1.228000 70.152000 # OT TIP3
302 101 1 0.417000 8.447000 1.196000 69.156998 # HT TIP3
303 101 1 0.417000 9.219000 1.336000 70.426003 # HT TIP3
304 102 2 -0.834000 11.701000 25.822001 68.539001 # OT TIP3
305 102 1 0.417000 12.625000 25.507999 68.615997 # HT TIP3
306 102 1 0.417000 11.377000 25.718000 69.475998 # HT TIP3
307 103 2 -0.834000 21.846001 21.362000 65.740997 # OT TIP3
308 103 1 0.417000 21.809999 21.846001 66.643997 # HT TIP3
309 103 1 0.417000 21.840000 20.389000 65.934998 # HT TIP3
310 104 2 -0.834000 11.028000 25.028000 71.007004 # OT TIP3
311 104 1 0.417000 11.075000 24.132000 71.424004 # HT TIP3
312 104 1 0.417000 11.040000 25.627001 71.785004 # HT TIP3
313 105 2 -0.834000 17.214001 8.847000 65.765999 # OT TIP3
314 105 1 0.417000 16.254000 8.992000 66.161003 # HT TIP3
315 105 1 0.417000 16.905001 8.392000 64.996002 # HT TIP3
316 106 2 -0.834000 13.440000 13.407000 66.370003 # OT TIP3
317 106 1 0.417000 12.652000 12.887000 66.105003 # HT TIP3
318 106 1 0.417000 13.893000 12.867000 66.976997 # HT TIP3
319 107 2 -0.834000 7.968000 12.629000 63.353001 # OT TIP3
320 107 1 0.417000 7.575000 11.896000 62.806999 # HT TIP3
321 107 1 0.417000 8.083000 13.290000 62.590000 # HT TIP3
322 108 2 -0.834000 14.533000 11.550000 68.160004 # OT TIP3
323 108 1 0.417000 13.608000 11.309000 68.489998 # HT TIP3
324 108 1 0.417000 15.008000 11.940000 68.925003 # HT TIP3
325 109 2 -0.834000 13.868000 25.879000 65.325996 # OT TIP3
326 109 1 0.417000 14.178000 26.389999 66.116997 # HT TIP3
327 109 1 0.417000 14.189000 25.009001 65.502998 # HT TIP3
328 110 2 -0.834000 25.964001 14.876000 63.868999 # OT TIP3
329 110 1 0.417000 25.211000 14.199000 63.873001 # HT TIP3
330 110 1 0.417000 26.157000 15.056000 62.910000 # HT TIP3
331 111 2 -0.834000 24.194000 21.211000 71.413002 # OT TIP3
332 111 1 0.417000 24.287001 20.862000 72.339996 # HT TIP3
333 111 1 0.417000 24.903000 21.868999 71.273003 # HT TIP3
334 112 2 -0.834000 12.642000 20.030001 65.865997 # OT TIP3
335 112 1 0.417000 11.752000 19.785999 66.209000 # HT TIP3
336 112 1 0.417000 12.534000 20.146999 64.897003 # HT TIP3
337 113 2 -0.834000 14.550000 22.521999 70.565002 # OT TIP3
338 113 1 0.417000 14.279000 22.743999 69.654999 # HT TIP3
339 113 1 0.417000 14.859000 23.419001 70.914001 # HT TIP3
340 114 2 -0.834000 13.814000 18.906000 68.383003 # OT TIP3
341 114 1 0.417000 14.379000 18.410000 67.688004 # HT TIP3
342 114 1 0.417000 12.963000 18.993999 67.954002 # HT TIP3
343 115 2 -0.834000 18.995001 26.202000 71.422997 # OT TIP3
344 115 1 0.417000 19.853001 26.548000 71.261002 # HT TIP3
345 115 1 0.417000 19.158001 25.441999 72.073997 # HT TIP3
346 116 2 -0.834000 16.989000 20.750999 65.862000 # OT TIP3
347 116 1 0.417000 16.952000 21.632000 65.459999 # HT TIP3
348 116 1 0.417000 16.556999 20.209999 65.188004 # HT TIP3
349 117 2 -0.834000 7.385000 26.655001 68.483002 # OT TIP3
350 117 1 0.417000 7.585000 26.839001 67.539001 # HT TIP3
351 117 1 0.417000 6.725000 27.337000 68.730003 # HT TIP3
352 118 2 -0.834000 24.688000 24.202000 65.102997 # OT TIP3
353 118 1 0.417000 24.403000 23.393999 64.551003 # HT TIP3
354 118 1 0.417000 24.792999 24.867001 64.378998 # HT TIP3
355 119 2 -0.834000 11.963000 2.737000 72.790001 # OT TIP3
356 119 1 0.417000 11.319000 3.240000 72.334000 # HT TIP3
357 119 1 0.417000 12.709000 3.167000 72.209999 # HT TIP3
358 120 2 -0.834000 15.776000 5.939000 73.443001 # OT TIP3
359 120 1 0.417000 15.636000 6.952000 73.251999 # HT TIP3
360 120 1 0.417000 14.865000 5.712000 73.603996 # HT TIP3
361 121 2 -0.834000 8.529000 5.508000 62.396000 # OT TIP3
362 121 1 0.417000 9.313000 5.582000 61.856998 # HT TIP3
363 121 1 0.417000 7.783000 5.511000 61.768002 # HT TIP3
364 122 2 -0.834000 25.212000 2.714000 73.133003 # OT TIP3
365 122 1 0.417000 24.582001 2.361000 73.799004 # HT TIP3
366 122 1 0.417000 25.341000 1.999000 72.525002 # HT TIP3
367 123 2 -0.834000 12.200000 5.151000 64.471001 # OT TIP3
368 123 1 0.417000 13.053000 5.360000 64.928001 # HT TIP3
369 123 1 0.417000 11.572000 5.426000 65.138000 # HT TIP3
370 124 2 -0.834000 21.914000 19.288000 70.227997 # OT TIP3
371 124 1 0.417000 22.719000 19.468000 70.819000 # HT TIP3
372 124 1 0.417000 22.059000 19.875000 69.515999 # HT TIP3
373 125 2 -0.834000 14.867000 5.624000 64.954002 # OT TIP3
374 125 1 0.417000 15.067000 5.641000 65.903999 # HT TIP3
375 125 1 0.417000 15.122000 6.494000 64.648003 # HT TIP3
376 126 2 -0.834000 18.422001 4.400000 65.202003 # OT TIP3
377 126 1 0.417000 19.195000 4.434000 64.598000 # HT TIP3
378 126 1 0.417000 18.396999 3.425000 65.406998 # HT TIP3
379 127 2 -0.834000 17.691000 18.916000 67.759003 # OT TIP3
380 127 1 0.417000 17.406000 19.552999 67.092003 # HT TIP3
381 127 1 0.417000 17.815001 19.525999 68.582001 # HT TIP3
382 128 2 -0.834000 19.193001 18.969999 70.750000 # OT TIP3
383 128 1 0.417000 18.958000 19.910999 70.833000 # HT TIP3
384 128 1 0.417000 20.150999 18.990000 70.647003 # HT TIP3
385 129 2 -0.834000 4.174000 12.159000 66.954002 # OT TIP3
386 129 1 0.417000 4.904000 12.073000 66.351997 # HT TIP3
387 129 1 0.417000 4.204000 13.104000 67.128998 # HT TIP3
388 130 2 -0.834000 25.035000 12.437000 71.942001 # OT TIP3
389 130 1 0.417000 25.407000 13.347000 71.838997 # HT TIP3
390 130 1 0.417000 24.483000 12.342000 71.152000 # HT TIP3
391 131 2 -0.834000 21.843000 16.003000 69.592003 # OT TIP3
392 131 1 0.417000 22.615999 16.655001 69.524002 # HT TIP3
393 131 1 0.417000 21.048000 16.518999 69.555000 # HT TIP3
394 132 2 -0.834000 4.628000 16.452999 70.683998 # OT TIP3
395 132 1 0.417000 4.604000 17.368000 70.364998 # HT TIP3
396 132 1 0.417000 4.266000 16.478001 71.592003 # HT TIP3
397 133 2 -0.834000 2.641000 19.264000 69.136002 # OT TIP3
398 133 1 0.417000 1.755000 19.490000 69.008003 # HT TIP3
399 133 1 0.417000 2.981000 20.003000 69.665001 # HT TIP3
400 134 2 -0.834000 28.308001 11.641000 73.542999 # OT TIP3
401 134 1 0.417000 28.329000 11.284000 72.599998 # HT TIP3
402 134 1 0.417000 28.336000 12.597000 73.374001 # HT TIP3
403 135 2 -0.834000 15.269000 11.001000 65.369003 # OT TIP3
404 135 1 0.417000 15.973000 11.528000 65.751999 # HT TIP3
405 135 1 0.417000 14.690000 10.859000 66.092003 # HT TIP3
406 136 2 -0.834000 15.691000 14.817000 70.050003 # OT TIP3
407 136 1 0.417000 16.162001 15.372000 69.385002 # HT TIP3
408 136 1 0.417000 14.821000 15.250000 70.112999 # HT TIP3
409 137 2 -0.834000 13.273000 6.424000 71.403999 # OT TIP3
410 137 1 0.417000 13.384000 5.472000 71.209999 # HT TIP3
411 137 1 0.417000 14.153000 6.714000 71.500999 # HT TIP3
412 138 2 -0.834000 11.289000 25.035999 63.292999 # OT TIP3
413 138 1 0.417000 11.347000 25.941999 63.018002 # HT TIP3
414 138 1 0.417000 12.189000 24.864000 63.555000 # HT TIP3
415 139 2 -0.834000 26.575001 17.759001 62.942001 # OT TIP3
416 139 1 0.417000 26.444000 17.306999 63.820000 # HT TIP3
417 139 1 0.417000 26.764000 16.962000 62.355000 # HT TIP3
418 140 2 -0.834000 28.117001 14.404000 68.125000 # OT TIP3
419 140 1 0.417000 28.014000 14.342000 69.079002 # HT TIP3
420 140 1 0.417000 28.893999 13.873000 67.936996 # HT TIP3
421 141 2 -0.834000 27.049999 19.753000 71.445999 # OT TIP3
422 141 1 0.417000 26.900000 20.673000 71.364998 # HT TIP3
423 141 1 0.417000 27.455000 19.516001 70.546997 # HT TIP3
424 142 2 -0.834000 18.290001 20.292000 63.359001 # OT TIP3
425 142 1 0.417000 18.570999 19.413000 63.071999 # HT TIP3
426 142 1 0.417000 18.247999 20.245001 64.346001 # HT TIP3
427 143 2 -0.834000 19.766001 24.787001 64.984001 # OT TIP3
428 143 1 0.417000 19.985001 24.007000 64.457001 # HT TIP3
429 143 1 0.417000 19.436001 24.402000 65.781998 # HT TIP3
430 144 2 -0.834000 20.066000 17.468000 67.796997 # OT TIP3
431 144 1 0.417000 19.299999 17.930000 68.189003 # HT TIP3
432 144 1 0.417000 19.743999 17.292000 66.883003 # HT TIP3
433 145 2 -0.834000 4.117000 12.819000 71.070000 # OT TIP3
434 145 1 0.417000 4.490000 13.496000 70.523003 # HT TIP3
435 145 1 0.417000 4.937000 12.583000 71.539001 # HT TIP3
436 146 2 -0.834000 1.549000 17.393000 71.365997 # OT TIP3
437 146 1 0.417000 2.292000 17.322001 72.015999 # HT TIP3
438 146 1 0.417000 1.665000 18.283001 70.972000 # HT TIP3
439 147 2 -0.834000 17.936001 27.039000 64.950996 # OT TIP3
440 147 1 0.417000 17.552000 26.514999 65.615997 # HT TIP3
441 147 1 0.417000 18.731001 26.524000 64.683998 # HT TIP3
442 148 2 -0.834000 18.347000 7.894000 73.709999 # OT TIP3
443 148 1 0.417000 18.035000 8.281000 72.931000 # HT TIP3
444 148 1 0.417000 18.688000 7.047000 73.386002 # HT TIP3
445 149 2 -0.834000 16.811001 16.289000 68.199997 # OT TIP3
446 149 1 0.417000 16.614000 15.969000 67.308998 # HT TIP3
447 149 1 0.417000 17.024000 17.198000 67.987000 # HT TIP3
448 150 2 -0.834000 19.327000 1.375000 72.458000 # OT TIP3
449 150 1 0.417000 19.825001 1.141000 73.293999 # HT TIP3
450 150 1 0.417000 19.403000 2.366000 72.379997 # HT TIP3
451 151 2 -0.834000 11.050000 6.605000 66.758003 # OT TIP3
452 151 1 0.417000 11.155000 7.554000 66.556000 # HT TIP3
453 151 1 0.417000 11.797000 6.389000 67.308998 # HT TIP3
454 152 2 -0.834000 8.881000 4.518000 66.699997 # OT TIP3
455 152 1 0.417000 9.550000 5.225000 66.811996 # HT TIP3
456 152 1 0.417000 8.070000 4.834000 67.168999 # HT TIP3
457 153 2 -0.834000 27.162001 10.527000 71.056000 # OT TIP3
458 153 1 0.417000 26.979000 9.633000 71.334000 # HT TIP3
459 153 1 0.417000 26.294001 11.023000 71.281998 # HT TIP3
460 154 2 -0.834000 9.559000 4.515000 72.535004 # OT TIP3
461 154 1 0.417000 9.435000 5.298000 73.154999 # HT TIP3
462 154 1 0.417000 8.955000 3.899000 72.952003 # HT TIP3
463 155 2 -0.834000 26.669001 4.701000 70.033997 # OT TIP3
464 155 1 0.417000 26.837000 3.765000 69.889000 # HT TIP3
465 155 1 0.417000 27.139000 4.915000 70.855003 # HT TIP3
466 156 2 -0.834000 28.204000 10.677000 68.575996 # OT TIP3
467 156 1 0.417000 28.643000 11.396000 69.019997 # HT TIP3
468 156 1 0.417000 27.766001 10.253000 69.325996 # HT TIP3
469 157 2 -0.834000 14.039000 11.511000 72.777000 # OT TIP3
470 157 1 0.417000 14.825000 11.589000 72.281998 # HT TIP3
471 157 1 0.417000 13.883000 12.473000 72.916000 # HT TIP3
472 158 2 -0.834000 22.509001 5.930000 67.320999 # OT TIP3
473 158 1 0.417000 22.670000 6.832000 67.278000 # HT TIP3
474 158 1 0.417000 23.198000 5.587000 67.963997 # HT TIP3
475 159 2 -0.834000 24.212999 6.241000 69.828003 # OT TIP3
476 159 1 0.417000 25.049999 5.674000 70.114998 # HT TIP3
477 159 1 0.417000 24.459999 7.086000 70.174004 # HT TIP3
478 160 2 -0.834000 26.596001 7.733000 71.331001 # OT TIP3
479 160 1 0.417000 27.356001 7.141000 71.094002 # HT TIP3
480 160 1 0.417000 26.493999 7.551000 72.291000 # HT TIP3
481 161 2 -0.834000 20.254000 22.282000 63.658001 # OT TIP3
482 161 1 0.417000 20.919001 21.761000 64.140999 # HT TIP3
483 161 1 0.417000 19.681000 21.629000 63.324001 # HT TIP3
484 162 2 -0.834000 17.114000 21.023001 69.848000 # OT TIP3
485 162 1 0.417000 17.232000 21.962999 69.609001 # HT TIP3
486 162 1 0.417000 16.257000 20.915001 70.300003 # HT TIP3
487 163 2 -0.834000 22.504999 9.198000 67.144997 # OT TIP3
488 163 1 0.417000 22.809000 10.071000 67.319000 # HT TIP3
489 163 1 0.417000 22.327999 9.249000 66.196999 # HT TIP3
490 164 2 -0.834000 14.870000 8.474000 73.186996 # OT TIP3
491 164 1 0.417000 14.209000 9.073000 73.633003 # HT TIP3
492 164 1 0.417000 15.457000 9.029000 72.658997 # HT TIP3
493 165 2 -0.834000 21.488001 14.173000 67.643997 # OT TIP3
494 165 1 0.417000 20.634001 13.697000 67.931000 # HT TIP3
495 165 1 0.417000 21.688000 14.734000 68.449997 # HT TIP3
496 166 2 -0.834000 14.600000 18.247000 70.998001 # OT TIP3
497 166 1 0.417000 14.256000 17.385000 71.107002 # HT TIP3
498 166 1 0.417000 14.616000 18.337000 70.046997 # HT TIP3
499 167 2 -0.834000 21.306000 27.975000 67.137001 # OT TIP3
500 167 1 0.417000 20.429001 28.309999 67.257004 # HT TIP3
501 167 1 0.417000 21.837999 28.794001 67.018997 # HT TIP3
502 168 2 -0.834000 24.915001 17.202999 65.221001 # OT TIP3
503 168 1 0.417000 25.358000 16.936001 66.065002 # HT TIP3
504 168 1 0.417000 24.944000 16.346001 64.767998 # HT TIP3
505 169 2 -0.834000 27.417000 21.249001 68.912003 # OT TIP3
506 169 1 0.417000 26.862000 21.922001 68.541000 # HT TIP3
507 169 1 0.417000 28.149000 21.907000 69.249001 # HT TIP3
508 170 2 -0.834000 23.042000 11.769000 67.475998 # OT TIP3
509 170 1 0.417000 23.761999 12.166000 68.064003 # HT TIP3
510 170 1 0.417000 22.379000 12.501000 67.346001 # HT TIP3