LAMMPS data file. CGCMM style. atom_style full generated by VMD/TopoTools v1.1 on Sun Nov 18 21:54:04 +0800 2012
 4069 atoms
 2566 bonds
 1283 angles
 0 dihedrals
 0 impropers
 4 atom types
 1 bond types
 1 angle types
 0 dihedral types
 0 improper types
 0.537000 29.537000  xlo xhi
 0.415500 29.115501  ylo yhi
 0.523500 59.723501  zlo zhi

# Pair Coeffs
#
# 1  CLA
# 2  HT
# 3  OT
# 4  SOD

# Bond Coeffs
#
# 1  

# Angle Coeffs
#
# 1  unknown

 Masses

 1 35.452999 # CLA
 2 1.007940 # HT
 3 15.999400 # OT
 4 22.989771 # SOD

 Atoms

1 1 3 -0.834000 3.968000 10.382000 16.304001 # OT TIP3
2 1 2 0.417000 3.524000 10.751000 15.501000 # HT TIP3
3 1 2 0.417000 3.392000 10.679000 17.027000 # HT TIP3
4 2 3 -0.834000 6.333000 5.176000 21.291000 # OT TIP3
5 2 2 0.417000 6.378000 5.524000 22.198000 # HT TIP3
6 2 2 0.417000 6.892000 4.388000 21.361000 # HT TIP3
7 3 3 -0.834000 4.869000 4.260000 30.287001 # OT TIP3
8 3 2 0.417000 4.259000 3.460000 30.379999 # HT TIP3
9 3 2 0.417000 4.295000 4.955000 29.822001 # HT TIP3
10 4 3 -0.834000 1.275000 14.307000 38.966999 # OT TIP3
11 4 2 0.417000 1.437000 13.563000 38.366001 # HT TIP3
12 4 2 0.417000 0.919000 13.839000 39.759998 # HT TIP3
13 5 3 -0.834000 6.687000 0.674000 51.256001 # OT TIP3
14 5 2 0.417000 6.606000 0.400000 50.324001 # HT TIP3
15 5 2 0.417000 7.456000 1.326000 51.174000 # HT TIP3
16 6 3 -0.834000 1.224000 4.549000 50.631001 # OT TIP3
17 6 2 0.417000 1.653000 4.014000 51.390999 # HT TIP3
18 6 2 0.417000 0.960000 5.386000 51.117001 # HT TIP3
19 7 3 -0.834000 6.836000 3.342000 56.792999 # OT TIP3
20 7 2 0.417000 7.223000 2.844000 56.006001 # HT TIP3
21 7 2 0.417000 7.515000 4.066000 56.985001 # HT TIP3
22 8 3 -0.834000 5.486000 16.996000 12.472000 # OT TIP3
23 8 2 0.417000 6.383000 17.278999 12.216000 # HT TIP3
24 8 2 0.417000 5.637000 16.132000 12.890000 # HT TIP3
25 9 3 -0.834000 14.737000 6.094000 30.955999 # OT TIP3
26 9 2 0.417000 13.824000 5.619000 30.931999 # HT TIP3
27 9 2 0.417000 15.284000 5.413000 31.372999 # HT TIP3
28 10 3 -0.834000 8.624000 14.111000 21.732000 # OT TIP3
29 10 2 0.417000 8.933000 13.648000 22.511999 # HT TIP3
30 10 2 0.417000 8.806000 13.416000 21.045000 # HT TIP3
31 11 3 -0.834000 11.762000 26.326000 31.773001 # OT TIP3
32 11 2 0.417000 11.686000 26.995001 32.476002 # HT TIP3
33 11 2 0.417000 10.919000 26.379999 31.336000 # HT TIP3
34 12 3 -0.834000 8.737000 2.469000 52.050999 # OT TIP3
35 12 2 0.417000 9.339000 2.700000 51.292999 # HT TIP3
36 12 2 0.417000 8.571000 3.212000 52.543999 # HT TIP3
37 13 3 -0.834000 4.086000 16.618000 1.710000 # OT TIP3
38 13 2 0.417000 4.081000 15.688000 1.596000 # HT TIP3
39 13 2 0.417000 4.828000 16.879999 1.181000 # HT TIP3
40 14 3 -0.834000 16.426001 15.001000 4.977000 # OT TIP3
41 14 2 0.417000 16.370001 14.572000 4.126000 # HT TIP3
42 14 2 0.417000 17.105000 15.754000 4.845000 # HT TIP3
43 15 3 -0.834000 4.235000 16.495001 22.509001 # OT TIP3
44 15 2 0.417000 5.170000 16.334000 22.385000 # HT TIP3
45 15 2 0.417000 3.955000 15.667000 22.981001 # HT TIP3
46 16 3 -0.834000 3.291000 11.462000 28.260000 # OT TIP3
47 16 2 0.417000 3.894000 11.268000 27.528999 # HT TIP3
48 16 2 0.417000 2.714000 12.075000 27.830000 # HT TIP3
49 17 3 -0.834000 4.540000 7.337000 27.481001 # OT TIP3
50 17 2 0.417000 4.956000 8.131000 27.058001 # HT TIP3
51 17 2 0.417000 4.086000 7.728000 28.212000 # HT TIP3
52 18 3 -0.834000 7.472000 7.299000 38.980999 # OT TIP3
53 18 2 0.417000 7.340000 7.850000 39.727001 # HT TIP3
54 18 2 0.417000 6.544000 7.056000 38.662998 # HT TIP3
55 19 3 -0.834000 10.974000 9.209000 5.386000 # OT TIP3
56 19 2 0.417000 11.298000 9.171000 6.332000 # HT TIP3
57 19 2 0.417000 10.048000 9.570000 5.475000 # HT TIP3
58 20 3 -0.834000 10.182000 9.456000 15.316000 # OT TIP3
59 20 2 0.417000 9.874000 10.053000 15.997000 # HT TIP3
60 20 2 0.417000 10.321000 8.564000 15.689000 # HT TIP3
61 21 3 -0.834000 8.264000 6.407000 29.853001 # OT TIP3
62 21 2 0.417000 8.542000 5.506000 29.999001 # HT TIP3
63 21 2 0.417000 8.722000 6.845000 30.636999 # HT TIP3
64 22 3 -0.834000 24.476999 14.571000 38.526001 # OT TIP3
65 22 2 0.417000 23.834000 14.242000 37.859001 # HT TIP3
66 22 2 0.417000 25.362000 14.382000 38.082001 # HT TIP3
67 23 3 -0.834000 6.616000 5.588000 27.895000 # OT TIP3
68 23 2 0.417000 6.940000 5.931000 28.763000 # HT TIP3
69 23 2 0.417000 5.863000 6.152000 27.680000 # HT TIP3
70 24 3 -0.834000 2.678000 16.555000 52.599998 # OT TIP3
71 24 2 0.417000 2.603000 15.573000 52.665001 # HT TIP3
72 24 2 0.417000 3.002000 16.773001 53.542999 # HT TIP3
73 25 3 -0.834000 5.121000 20.903000 11.639000 # OT TIP3
74 25 2 0.417000 5.766000 21.082001 12.363000 # HT TIP3
75 25 2 0.417000 5.684000 21.214001 10.856000 # HT TIP3
76 26 3 -0.834000 15.322000 21.155001 13.231000 # OT TIP3
77 26 2 0.417000 14.522000 21.108999 13.692000 # HT TIP3
78 26 2 0.417000 14.973000 21.357000 12.318000 # HT TIP3
79 27 3 -0.834000 0.785000 15.437000 22.875999 # OT TIP3
80 27 2 0.417000 0.944000 15.725000 23.749001 # HT TIP3
81 27 2 0.417000 0.612000 16.261000 22.375000 # HT TIP3
82 28 3 -0.834000 13.443000 14.095000 33.879002 # OT TIP3
83 28 2 0.417000 13.231000 13.853000 34.756001 # HT TIP3
84 28 2 0.417000 13.823000 14.962000 33.918999 # HT TIP3
85 29 3 -0.834000 12.721000 20.895000 31.743000 # OT TIP3
86 29 2 0.417000 12.630000 20.921000 32.702999 # HT TIP3
87 29 2 0.417000 12.581000 21.826000 31.462999 # HT TIP3
88 30 3 -0.834000 10.255000 17.933001 41.606998 # OT TIP3
89 30 2 0.417000 9.341000 18.160999 41.766998 # HT TIP3
90 30 2 0.417000 10.505000 17.263000 42.348000 # HT TIP3
91 31 3 -0.834000 7.542000 27.120001 56.685001 # OT TIP3
92 31 2 0.417000 7.309000 26.351999 56.145000 # HT TIP3
93 31 2 0.417000 7.123000 27.849001 56.122002 # HT TIP3
94 32 3 -0.834000 5.908000 24.218000 13.359000 # OT TIP3
95 32 2 0.417000 5.140000 23.922001 12.945000 # HT TIP3
96 32 2 0.417000 6.337000 24.636000 12.608000 # HT TIP3
97 33 3 -0.834000 10.726000 7.904000 2.804000 # OT TIP3
98 33 2 0.417000 11.061000 8.701000 2.394000 # HT TIP3
99 33 2 0.417000 10.548000 8.189000 3.708000 # HT TIP3
100 34 3 -0.834000 8.869000 25.983999 12.611000 # OT TIP3
101 34 2 0.417000 9.423000 25.841999 13.415000 # HT TIP3
102 34 2 0.417000 9.105000 26.895000 12.327000 # HT TIP3
103 35 3 -0.834000 4.569000 23.052000 16.665001 # OT TIP3
104 35 2 0.417000 4.449000 23.980000 16.288000 # HT TIP3
105 35 2 0.417000 5.361000 23.096001 17.176001 # HT TIP3
106 36 3 -0.834000 3.899000 13.989000 23.983000 # OT TIP3
107 36 2 0.417000 3.730000 13.176000 24.462000 # HT TIP3
108 36 2 0.417000 4.861000 14.069000 24.061001 # HT TIP3
109 37 3 -0.834000 20.252001 2.261000 26.563999 # OT TIP3
110 37 2 0.417000 20.714001 1.379000 26.479000 # HT TIP3
111 37 2 0.417000 20.966999 2.953000 26.413000 # HT TIP3
112 38 3 -0.834000 4.378000 21.104000 50.666000 # OT TIP3
113 38 2 0.417000 4.802000 21.409000 51.460999 # HT TIP3
114 38 2 0.417000 3.693000 20.389000 50.998001 # HT TIP3
115 39 3 -0.834000 23.816999 11.339000 43.183998 # OT TIP3
116 39 2 0.417000 22.987000 10.872000 43.293999 # HT TIP3
117 39 2 0.417000 24.309999 10.806000 43.761002 # HT TIP3
118 40 3 -0.834000 14.313000 11.975000 59.037998 # OT TIP3
119 40 2 0.417000 15.050000 11.344000 59.174999 # HT TIP3
120 40 2 0.417000 13.553000 11.357000 59.095001 # HT TIP3
121 41 3 -0.834000 22.872000 6.542000 3.878000 # OT TIP3
122 41 2 0.417000 22.004999 6.145000 4.230000 # HT TIP3
123 41 2 0.417000 23.250999 5.959000 3.258000 # HT TIP3
124 42 3 -0.834000 11.226000 5.665000 1.418000 # OT TIP3
125 42 2 0.417000 11.438000 5.069000 2.154000 # HT TIP3
126 42 2 0.417000 10.957000 6.512000 1.893000 # HT TIP3
127 43 3 -0.834000 8.681000 17.618999 23.674999 # OT TIP3
128 43 2 0.417000 7.816000 17.639999 24.094999 # HT TIP3
129 43 2 0.417000 8.731000 18.563000 23.409000 # HT TIP3
130 44 3 -0.834000 1.970000 15.975000 29.566000 # OT TIP3
131 44 2 0.417000 2.420000 16.250000 30.374001 # HT TIP3
132 44 2 0.417000 1.063000 15.817000 29.868000 # HT TIP3
133 45 3 -0.834000 16.770000 28.389000 2.581000 # OT TIP3
134 45 2 0.417000 17.153999 27.530001 2.899000 # HT TIP3
135 45 2 0.417000 15.833000 28.156000 2.488000 # HT TIP3
136 46 3 -0.834000 6.321000 7.784000 57.508999 # OT TIP3
137 46 2 0.417000 5.965000 8.262000 58.278000 # HT TIP3
138 46 2 0.417000 6.457000 8.408000 56.869999 # HT TIP3
139 47 3 -0.834000 1.102000 25.384001 5.923000 # OT TIP3
140 47 2 0.417000 0.879000 26.365000 5.905000 # HT TIP3
141 47 2 0.417000 2.095000 25.462999 5.845000 # HT TIP3
142 48 3 -0.834000 9.192000 13.277000 5.721000 # OT TIP3
143 48 2 0.417000 8.419000 12.778000 5.843000 # HT TIP3
144 48 2 0.417000 9.642000 12.857000 4.936000 # HT TIP3
145 49 3 -0.834000 3.008000 21.268999 24.903999 # OT TIP3
146 49 2 0.417000 2.889000 21.245001 23.955999 # HT TIP3
147 49 2 0.417000 3.423000 22.135000 24.948999 # HT TIP3
148 50 3 -0.834000 2.728000 13.031000 30.886999 # OT TIP3
149 50 2 0.417000 3.019000 12.373000 30.230000 # HT TIP3
150 50 2 0.417000 2.882000 13.842000 30.408001 # HT TIP3
151 51 3 -0.834000 14.073000 17.896000 47.514000 # OT TIP3
152 51 2 0.417000 13.129000 18.024000 47.624001 # HT TIP3
153 51 2 0.417000 14.343000 17.448000 48.375000 # HT TIP3
154 52 3 -0.834000 3.793000 8.308000 54.208000 # OT TIP3
155 52 2 0.417000 4.739000 8.643000 54.081001 # HT TIP3
156 52 2 0.417000 3.242000 9.041000 53.859001 # HT TIP3
157 53 3 -0.834000 2.474000 18.768000 2.612000 # OT TIP3
158 53 2 0.417000 2.932000 17.927999 2.603000 # HT TIP3
159 53 2 0.417000 3.231000 19.420000 2.681000 # HT TIP3
160 54 3 -0.834000 5.348000 9.346000 36.978001 # OT TIP3
161 54 2 0.417000 5.364000 10.189000 37.459000 # HT TIP3
162 54 2 0.417000 4.922000 9.524000 36.143002 # HT TIP3
163 55 3 -0.834000 12.690000 27.607000 37.759998 # OT TIP3
164 55 2 0.417000 12.145000 28.413000 37.693001 # HT TIP3
165 55 2 0.417000 12.345000 27.219999 38.575001 # HT TIP3
166 56 3 -0.834000 19.170000 21.760000 29.371000 # OT TIP3
167 56 2 0.417000 18.202999 21.587999 29.121000 # HT TIP3
168 56 2 0.417000 19.374001 20.990999 29.990999 # HT TIP3
169 57 3 -0.834000 2.429000 21.740000 46.020000 # OT TIP3
170 57 2 0.417000 2.829000 22.583000 46.311001 # HT TIP3
171 57 2 0.417000 1.690000 21.709000 46.633999 # HT TIP3
172 58 3 -0.834000 12.565000 22.184999 52.285999 # OT TIP3
173 58 2 0.417000 12.953000 21.427000 51.769001 # HT TIP3
174 58 2 0.417000 13.264000 22.847000 52.264999 # HT TIP3
175 59 3 -0.834000 13.912000 17.980000 19.021999 # OT TIP3
176 59 2 0.417000 14.044000 17.714001 19.908001 # HT TIP3
177 59 2 0.417000 14.826000 18.131001 18.747000 # HT TIP3
178 60 3 -0.834000 1.587000 24.431999 24.136999 # OT TIP3
179 60 2 0.417000 1.535000 24.224001 25.131001 # HT TIP3
180 60 2 0.417000 2.388000 25.009001 24.039000 # HT TIP3
181 61 3 -0.834000 1.737000 24.590000 54.855000 # OT TIP3
182 61 2 0.417000 0.976000 24.966000 54.327999 # HT TIP3
183 61 2 0.417000 2.347000 24.416000 54.193001 # HT TIP3
184 62 3 -0.834000 4.998000 5.369000 57.745998 # OT TIP3
185 62 2 0.417000 5.654000 4.628000 57.588001 # HT TIP3
186 62 2 0.417000 5.547000 6.134000 57.950001 # HT TIP3
187 63 3 -0.834000 9.639000 7.038000 32.300999 # OT TIP3
188 63 2 0.417000 9.204000 7.536000 33.034000 # HT TIP3
189 63 2 0.417000 9.704000 6.138000 32.622002 # HT TIP3
190 64 3 -0.834000 15.714000 6.869000 2.901000 # OT TIP3
191 64 2 0.417000 16.524000 7.158000 2.528000 # HT TIP3
192 64 2 0.417000 15.108000 7.000000 2.071000 # HT TIP3
193 65 3 -0.834000 7.871000 4.098000 34.494999 # OT TIP3
194 65 2 0.417000 7.266000 4.704000 33.894001 # HT TIP3
195 65 2 0.417000 7.746000 4.395000 35.428001 # HT TIP3
196 66 3 -0.834000 12.096000 26.422001 50.688000 # OT TIP3
197 66 2 0.417000 12.163000 26.591000 49.763000 # HT TIP3
198 66 2 0.417000 11.319000 25.806999 50.734001 # HT TIP3
199 67 3 -0.834000 10.235000 13.176000 10.591000 # OT TIP3
200 67 2 0.417000 10.009000 12.398000 10.034000 # HT TIP3
201 67 2 0.417000 9.772000 13.066000 11.418000 # HT TIP3
202 68 3 -0.834000 7.360000 2.374000 20.230000 # OT TIP3
203 68 2 0.417000 7.950000 1.919000 20.927999 # HT TIP3
204 68 2 0.417000 6.448000 2.096000 20.434999 # HT TIP3
205 69 3 -0.834000 10.257000 15.080000 49.132999 # OT TIP3
206 69 2 0.417000 10.358000 14.475000 48.372002 # HT TIP3
207 69 2 0.417000 9.407000 15.496000 48.917999 # HT TIP3
208 70 3 -0.834000 2.224000 3.277000 52.963001 # OT TIP3
209 70 2 0.417000 2.263000 3.798000 53.778999 # HT TIP3
210 70 2 0.417000 1.833000 2.426000 53.261002 # HT TIP3
211 71 3 -0.834000 14.191000 2.219000 3.392000 # OT TIP3
212 71 2 0.417000 14.498000 2.981000 3.822000 # HT TIP3
213 71 2 0.417000 13.512000 1.877000 3.978000 # HT TIP3
214 72 3 -0.834000 9.123000 10.881000 9.227000 # OT TIP3
215 72 2 0.417000 8.483000 11.053000 8.548000 # HT TIP3
216 72 2 0.417000 8.689000 10.361000 9.934000 # HT TIP3
217 73 3 -0.834000 8.669000 17.458000 48.835999 # OT TIP3
218 73 2 0.417000 8.283000 17.320999 47.974998 # HT TIP3
219 73 2 0.417000 8.064000 18.188000 49.185001 # HT TIP3
220 74 3 -0.834000 10.582000 0.940000 2.453000 # OT TIP3
221 74 2 0.417000 10.667000 1.259000 3.416000 # HT TIP3
222 74 2 0.417000 10.043000 1.623000 2.067000 # HT TIP3
223 75 3 -0.834000 4.918000 8.425000 8.177000 # OT TIP3
224 75 2 0.417000 5.705000 8.219000 8.714000 # HT TIP3
225 75 2 0.417000 4.302000 8.758000 8.822000 # HT TIP3
226 76 3 -0.834000 3.703000 4.987000 10.215000 # OT TIP3
227 76 2 0.417000 3.409000 5.572000 9.497000 # HT TIP3
228 76 2 0.417000 4.117000 4.273000 9.727000 # HT TIP3
229 77 3 -0.834000 3.576000 7.765000 19.725000 # OT TIP3
230 77 2 0.417000 3.072000 7.291000 20.364000 # HT TIP3
231 77 2 0.417000 3.904000 8.588000 20.153000 # HT TIP3
232 78 3 -0.834000 3.191000 5.344000 33.013000 # OT TIP3
233 78 2 0.417000 2.560000 4.820000 33.549999 # HT TIP3
234 78 2 0.417000 2.603000 5.810000 32.419998 # HT TIP3
235 79 3 -0.834000 10.000000 13.393000 46.844002 # OT TIP3
236 79 2 0.417000 10.812000 13.455000 46.411999 # HT TIP3
237 79 2 0.417000 10.081000 12.493000 47.154999 # HT TIP3
238 80 3 -0.834000 1.037000 18.202000 37.490002 # OT TIP3
239 80 2 0.417000 0.759000 19.091999 37.751999 # HT TIP3
240 80 2 0.417000 1.166000 18.249001 36.547001 # HT TIP3
241 81 3 -0.834000 10.278000 8.175000 25.348000 # OT TIP3
242 81 2 0.417000 9.889000 7.926000 26.245001 # HT TIP3
243 81 2 0.417000 10.736000 8.956000 25.587000 # HT TIP3
244 82 3 -0.834000 20.775000 18.462000 54.136002 # OT TIP3
245 82 2 0.417000 20.742001 19.483999 53.942001 # HT TIP3
246 82 2 0.417000 20.141001 18.056999 53.513000 # HT TIP3
247 83 3 -0.834000 10.227000 4.485000 33.205002 # OT TIP3
248 83 2 0.417000 9.356000 4.235000 33.602001 # HT TIP3
249 83 2 0.417000 10.660000 3.625000 33.064999 # HT TIP3
250 84 3 -0.834000 21.065001 16.518000 48.771999 # OT TIP3
251 84 2 0.417000 21.122000 16.458000 47.790001 # HT TIP3
252 84 2 0.417000 21.895000 16.157000 49.098999 # HT TIP3
253 85 3 -0.834000 1.197000 4.774000 55.118999 # OT TIP3
254 85 2 0.417000 1.622000 5.643000 55.152000 # HT TIP3
255 85 2 0.417000 0.490000 4.876000 55.743999 # HT TIP3
256 86 3 -0.834000 3.419000 10.625000 13.558000 # OT TIP3
257 86 2 0.417000 3.898000 11.200000 12.912000 # HT TIP3
258 86 2 0.417000 3.740000 9.730000 13.362000 # HT TIP3
259 87 3 -0.834000 2.678000 6.106000 16.653000 # OT TIP3
260 87 2 0.417000 2.457000 6.461000 17.499001 # HT TIP3
261 87 2 0.417000 3.601000 6.332000 16.525999 # HT TIP3
262 88 3 -0.834000 6.682000 22.570999 2.719000 # OT TIP3
263 88 2 0.417000 5.850000 22.334999 2.247000 # HT TIP3
264 88 2 0.417000 7.159000 21.771999 2.592000 # HT TIP3
265 89 3 -0.834000 4.317000 4.205000 19.818001 # OT TIP3
266 89 2 0.417000 3.442000 4.342000 19.532000 # HT TIP3
267 89 2 0.417000 4.882000 5.027000 19.695000 # HT TIP3
268 90 3 -0.834000 2.644000 20.771999 22.031000 # OT TIP3
269 90 2 0.417000 3.232000 21.121000 21.344999 # HT TIP3
270 90 2 0.417000 1.767000 20.848000 21.538000 # HT TIP3
271 91 3 -0.834000 20.913000 13.916000 11.466000 # OT TIP3
272 91 2 0.417000 21.039000 14.259000 10.618000 # HT TIP3
273 91 2 0.417000 19.919001 14.116000 11.650000 # HT TIP3
274 92 3 -0.834000 11.792000 5.848000 35.245998 # OT TIP3
275 92 2 0.417000 11.463000 5.504000 34.439999 # HT TIP3
276 92 2 0.417000 11.686000 6.779000 35.258999 # HT TIP3
277 93 3 -0.834000 2.087000 9.818000 24.915001 # OT TIP3
278 93 2 0.417000 2.432000 9.875000 24.046000 # HT TIP3
279 93 2 0.417000 2.160000 10.706000 25.187000 # HT TIP3
280 94 3 -0.834000 4.427000 2.170000 33.160999 # OT TIP3
281 94 2 0.417000 4.130000 2.572000 32.389000 # HT TIP3
282 94 2 0.417000 5.030000 2.862000 33.498001 # HT TIP3
283 95 3 -0.834000 14.826000 10.832000 20.537001 # OT TIP3
284 95 2 0.417000 14.462000 10.033000 20.903000 # HT TIP3
285 95 2 0.417000 14.766000 10.720000 19.594000 # HT TIP3
286 96 3 -0.834000 11.581000 12.713000 56.853001 # OT TIP3
287 96 2 0.417000 11.662000 12.019000 57.541000 # HT TIP3
288 96 2 0.417000 11.958000 12.294000 56.049000 # HT TIP3
289 97 3 -0.834000 8.265000 5.756000 57.077999 # OT TIP3
290 97 2 0.417000 8.695000 5.911000 57.889000 # HT TIP3
291 97 2 0.417000 7.585000 6.443000 57.077000 # HT TIP3
292 98 3 -0.834000 26.424000 16.893999 17.207001 # OT TIP3
293 98 2 0.417000 27.247999 17.164000 17.643999 # HT TIP3
294 98 2 0.417000 26.437000 17.348000 16.299999 # HT TIP3
295 99 3 -0.834000 9.176000 28.737000 5.979000 # OT TIP3
296 99 2 0.417000 9.527000 27.877001 5.758000 # HT TIP3
297 99 2 0.417000 9.090000 28.698000 6.933000 # HT TIP3
298 100 3 -0.834000 16.583000 7.654000 23.181000 # OT TIP3
299 100 2 0.417000 15.940000 8.358000 22.849001 # HT TIP3
300 100 2 0.417000 16.273001 6.860000 22.778999 # HT TIP3
301 101 3 -0.834000 23.172001 18.740999 17.188000 # OT TIP3
302 101 2 0.417000 22.500999 18.164000 16.778999 # HT TIP3
303 101 2 0.417000 22.635000 19.281000 17.825001 # HT TIP3
304 102 3 -0.834000 10.405000 1.141000 39.511002 # OT TIP3
305 102 2 0.417000 9.788000 1.750000 39.030998 # HT TIP3
306 102 2 0.417000 10.932000 1.718000 40.105000 # HT TIP3
307 103 3 -0.834000 8.247000 20.910999 54.368000 # OT TIP3
308 103 2 0.417000 8.020000 20.493000 55.174000 # HT TIP3
309 103 2 0.417000 8.844000 21.660999 54.648998 # HT TIP3
310 104 3 -0.834000 1.042000 20.947001 37.824001 # OT TIP3
311 104 2 0.417000 0.463000 21.502001 37.255001 # HT TIP3
312 104 2 0.417000 1.832000 20.709999 37.237000 # HT TIP3
313 105 3 -0.834000 2.307000 13.554000 49.053001 # OT TIP3
314 105 2 0.417000 1.933000 13.433000 48.153000 # HT TIP3
315 105 2 0.417000 2.382000 14.501000 49.055000 # HT TIP3
316 106 3 -0.834000 9.269000 17.306999 56.118000 # OT TIP3
317 106 2 0.417000 9.942000 16.646999 56.014999 # HT TIP3
318 106 2 0.417000 9.313000 17.469000 57.057999 # HT TIP3
319 107 3 -0.834000 28.149000 10.168000 19.573000 # OT TIP3
320 107 2 0.417000 27.469999 10.020000 20.263000 # HT TIP3
321 107 2 0.417000 27.702999 10.719000 18.889000 # HT TIP3
322 108 3 -0.834000 4.852000 1.670000 20.730000 # OT TIP3
323 108 2 0.417000 4.574000 2.494000 20.353001 # HT TIP3
324 108 2 0.417000 4.535000 1.101000 19.971001 # HT TIP3
325 109 3 -0.834000 4.894000 25.566000 15.600000 # OT TIP3
326 109 2 0.417000 3.938000 25.799999 15.596000 # HT TIP3
327 109 2 0.417000 5.058000 25.197001 14.712000 # HT TIP3
328 110 3 -0.834000 11.266000 0.787000 28.063999 # OT TIP3
329 110 2 0.417000 11.135000 1.723000 27.875000 # HT TIP3
330 110 2 0.417000 10.858000 0.392000 27.283001 # HT TIP3
331 111 3 -0.834000 6.880000 13.292000 30.091000 # OT TIP3
332 111 2 0.417000 6.730000 14.186000 30.372000 # HT TIP3
333 111 2 0.417000 6.729000 12.799000 30.881001 # HT TIP3
334 112 3 -0.834000 5.460000 14.044000 8.354000 # OT TIP3
335 112 2 0.417000 6.348000 13.722000 8.607000 # HT TIP3
336 112 2 0.417000 5.308000 14.793000 8.928000 # HT TIP3
337 113 3 -0.834000 3.648000 27.386999 44.769001 # OT TIP3
338 113 2 0.417000 4.147000 27.555000 45.625000 # HT TIP3
339 113 2 0.417000 3.113000 26.635000 45.061001 # HT TIP3
340 114 3 -0.834000 10.690000 6.686000 19.228001 # OT TIP3
341 114 2 0.417000 10.988000 6.784000 20.131001 # HT TIP3
342 114 2 0.417000 10.144000 5.889000 19.320999 # HT TIP3
343 115 3 -0.834000 9.930000 21.847000 3.400000 # OT TIP3
344 115 2 0.417000 9.901000 22.771000 3.043000 # HT TIP3
345 115 2 0.417000 9.587000 21.254000 2.712000 # HT TIP3
346 116 3 -0.834000 2.644000 10.871000 3.024000 # OT TIP3
347 116 2 0.417000 2.422000 11.053000 3.953000 # HT TIP3
348 116 2 0.417000 3.247000 10.091000 3.017000 # HT TIP3
349 117 3 -0.834000 2.882000 27.934999 22.462999 # OT TIP3
350 117 2 0.417000 2.126000 27.634001 23.010000 # HT TIP3
351 117 2 0.417000 2.441000 28.173000 21.627001 # HT TIP3
352 118 3 -0.834000 8.423000 8.190000 34.505001 # OT TIP3
353 118 2 0.417000 8.583000 7.839000 35.438999 # HT TIP3
354 118 2 0.417000 9.029000 8.934000 34.400002 # HT TIP3
355 119 3 -0.834000 13.685000 10.069000 29.853001 # OT TIP3
356 119 2 0.417000 14.156000 10.691000 30.462000 # HT TIP3
357 119 2 0.417000 12.899000 9.813000 30.365000 # HT TIP3
358 120 3 -0.834000 1.123000 23.968000 3.288000 # OT TIP3
359 120 2 0.417000 1.936000 23.615999 3.740000 # HT TIP3
360 120 2 0.417000 0.553000 24.278000 4.040000 # HT TIP3
361 121 3 -0.834000 13.654000 15.058000 49.047001 # OT TIP3
362 121 2 0.417000 14.620000 14.664000 49.087002 # HT TIP3
363 121 2 0.417000 13.130000 14.510000 49.617001 # HT TIP3
364 122 3 -0.834000 16.372999 24.020000 49.314999 # OT TIP3
365 122 2 0.417000 17.027000 23.333000 49.544998 # HT TIP3
366 122 2 0.417000 16.837000 24.670000 48.761002 # HT TIP3
367 123 3 -0.834000 2.383000 28.632000 7.726000 # OT TIP3
368 123 2 0.417000 1.858000 28.813999 8.515000 # HT TIP3
369 123 2 0.417000 1.796000 28.037001 7.211000 # HT TIP3
370 124 3 -0.834000 13.520000 24.794001 13.492000 # OT TIP3
371 124 2 0.417000 13.191000 25.683001 13.687000 # HT TIP3
372 124 2 0.417000 13.356000 24.218000 14.253000 # HT TIP3
373 125 3 -0.834000 1.295000 28.320999 10.415000 # OT TIP3
374 125 2 0.417000 0.313000 28.281000 10.443000 # HT TIP3
375 125 2 0.417000 1.598000 27.419001 10.663000 # HT TIP3
376 126 3 -0.834000 3.010000 6.485000 7.940000 # OT TIP3
377 126 2 0.417000 2.767000 6.536000 6.961000 # HT TIP3
378 126 2 0.417000 3.710000 7.155000 7.980000 # HT TIP3
379 127 3 -0.834000 13.636000 24.761000 37.185001 # OT TIP3
380 127 2 0.417000 13.539000 25.464001 37.834000 # HT TIP3
381 127 2 0.417000 13.993000 24.013000 37.644001 # HT TIP3
382 128 3 -0.834000 3.134000 15.343000 34.773998 # OT TIP3
383 128 2 0.417000 2.579000 15.107000 35.522999 # HT TIP3
384 128 2 0.417000 3.907000 14.849000 34.903000 # HT TIP3
385 129 3 -0.834000 23.424000 20.929001 46.023998 # OT TIP3
386 129 2 0.417000 22.410000 20.886000 45.771000 # HT TIP3
387 129 2 0.417000 23.594999 19.962999 46.229000 # HT TIP3
388 130 3 -0.834000 1.729000 22.711000 51.256001 # OT TIP3
389 130 2 0.417000 1.935000 23.628000 51.006001 # HT TIP3
390 130 2 0.417000 2.659000 22.351000 51.424999 # HT TIP3
391 131 3 -0.834000 16.492001 22.702999 4.182000 # OT TIP3
392 131 2 0.417000 16.663000 23.181000 5.022000 # HT TIP3
393 131 2 0.417000 16.726999 23.365000 3.486000 # HT TIP3
394 132 3 -0.834000 13.840000 22.520000 3.148000 # OT TIP3
395 132 2 0.417000 13.265000 22.775000 3.862000 # HT TIP3
396 132 2 0.417000 14.728000 22.704000 3.474000 # HT TIP3
397 133 3 -0.834000 9.825000 28.841000 30.551001 # OT TIP3
398 133 2 0.417000 10.715000 28.718000 30.086000 # HT TIP3
399 133 2 0.417000 9.497000 27.971001 30.639000 # HT TIP3
400 134 3 -0.834000 8.689000 18.465000 31.392000 # OT TIP3
401 134 2 0.417000 8.268000 18.070000 30.610001 # HT TIP3
402 134 2 0.417000 8.717000 17.750999 32.041000 # HT TIP3
403 135 3 -0.834000 10.738000 21.537001 41.409000 # OT TIP3
404 135 2 0.417000 11.146000 21.040001 40.667999 # HT TIP3
405 135 2 0.417000 9.877000 21.780001 41.112000 # HT TIP3
406 136 3 -0.834000 15.626000 27.268000 31.802000 # OT TIP3
407 136 2 0.417000 14.753000 27.035999 31.327999 # HT TIP3
408 136 2 0.417000 15.368000 27.920000 32.432999 # HT TIP3
409 137 3 -0.834000 3.571000 19.274000 43.587002 # OT TIP3
410 137 2 0.417000 3.758000 18.372999 43.388000 # HT TIP3
411 137 2 0.417000 3.620000 19.729000 42.713001 # HT TIP3
412 138 3 -0.834000 8.481000 23.764999 8.037000 # OT TIP3
413 138 2 0.417000 9.307000 24.237000 8.103000 # HT TIP3
414 138 2 0.417000 7.817000 24.417000 7.712000 # HT TIP3
415 139 3 -0.834000 19.959000 25.851999 17.849001 # OT TIP3
416 139 2 0.417000 20.482000 26.646000 17.899000 # HT TIP3
417 139 2 0.417000 19.034000 26.158001 17.781000 # HT TIP3
418 140 3 -0.834000 2.386000 25.752001 18.594000 # OT TIP3
419 140 2 0.417000 2.474000 26.223000 17.794001 # HT TIP3
420 140 2 0.417000 1.572000 26.169001 19.004000 # HT TIP3
421 141 3 -0.834000 1.983000 25.966999 26.732000 # OT TIP3
422 141 2 0.417000 2.880000 26.207001 26.826000 # HT TIP3
423 141 2 0.417000 1.785000 25.527000 27.525999 # HT TIP3
424 142 3 -0.834000 23.631001 21.919001 18.469000 # OT TIP3
425 142 2 0.417000 23.437000 22.816000 18.856001 # HT TIP3
426 142 2 0.417000 22.962999 21.285000 18.850000 # HT TIP3
427 143 3 -0.834000 15.718000 17.591000 49.969002 # OT TIP3
428 143 2 0.417000 16.384001 17.358999 49.355999 # HT TIP3
429 143 2 0.417000 16.284000 18.122000 50.535000 # HT TIP3
430 144 3 -0.834000 16.806999 17.469999 21.406000 # OT TIP3
431 144 2 0.417000 17.525999 17.306000 20.695000 # HT TIP3
432 144 2 0.417000 16.330000 16.597000 21.482000 # HT TIP3
433 145 3 -0.834000 4.090000 23.618000 26.466999 # OT TIP3
434 145 2 0.417000 4.411000 23.983999 27.301001 # HT TIP3
435 145 2 0.417000 3.135000 23.496000 26.648001 # HT TIP3
436 146 3 -0.834000 4.535000 24.709999 52.773998 # OT TIP3
437 146 2 0.417000 4.975000 25.436001 53.220001 # HT TIP3
438 146 2 0.417000 3.876000 25.191000 52.167000 # HT TIP3
439 147 3 -0.834000 16.021000 3.284000 45.433998 # OT TIP3
440 147 2 0.417000 16.216999 3.585000 46.386002 # HT TIP3
441 147 2 0.417000 15.248000 3.770000 45.175999 # HT TIP3
442 148 3 -0.834000 5.656000 5.688000 16.445999 # OT TIP3
443 148 2 0.417000 6.184000 6.364000 16.861000 # HT TIP3
444 148 2 0.417000 5.892000 4.922000 16.937000 # HT TIP3
445 149 3 -0.834000 2.981000 2.848000 41.551998 # OT TIP3
446 149 2 0.417000 2.898000 1.890000 41.394001 # HT TIP3
447 149 2 0.417000 3.670000 2.957000 42.270000 # HT TIP3
448 150 3 -0.834000 1.039000 8.569000 57.463001 # OT TIP3
449 150 2 0.417000 1.202000 9.285000 56.810001 # HT TIP3
450 150 2 0.417000 1.673000 7.905000 57.250999 # HT TIP3
451 151 3 -0.834000 11.004000 7.021000 16.283001 # OT TIP3
452 151 2 0.417000 11.201000 7.212000 17.236000 # HT TIP3
453 151 2 0.417000 10.427000 6.272000 16.398001 # HT TIP3
454 152 3 -0.834000 14.551000 15.902000 59.115002 # OT TIP3
455 152 2 0.417000 14.788000 16.566999 58.353001 # HT TIP3
456 152 2 0.417000 13.734000 16.329000 59.428001 # HT TIP3
457 153 3 -0.834000 27.197001 12.394000 1.079000 # OT TIP3
458 153 2 0.417000 26.813999 11.580000 0.704000 # HT TIP3
459 153 2 0.417000 28.174999 12.227000 0.953000 # HT TIP3
460 154 3 -0.834000 2.489000 2.006000 25.278000 # OT TIP3
461 154 2 0.417000 1.764000 1.391000 25.110001 # HT TIP3
462 154 2 0.417000 2.425000 2.105000 26.299999 # HT TIP3
463 155 3 -0.834000 12.063000 19.914000 10.358000 # OT TIP3
464 155 2 0.417000 12.579000 20.705000 10.266000 # HT TIP3
465 155 2 0.417000 12.735000 19.205000 10.301000 # HT TIP3
466 156 3 -0.834000 8.164000 10.903000 29.350000 # OT TIP3
467 156 2 0.417000 7.769000 11.575000 29.907000 # HT TIP3
468 156 2 0.417000 7.454000 10.292000 29.183001 # HT TIP3
469 157 3 -0.834000 4.947000 6.932000 37.933998 # OT TIP3
470 157 2 0.417000 4.142000 6.476000 37.598000 # HT TIP3
471 157 2 0.417000 4.930000 7.786000 37.490002 # HT TIP3
472 158 3 -0.834000 10.747000 6.744000 55.269001 # OT TIP3
473 158 2 0.417000 9.835000 6.713000 55.118000 # HT TIP3
474 158 2 0.417000 10.869000 6.350000 56.066002 # HT TIP3
475 159 3 -0.834000 11.193000 8.716000 30.715000 # OT TIP3
476 159 2 0.417000 11.039000 8.087000 29.938000 # HT TIP3
477 159 2 0.417000 10.661000 8.271000 31.374001 # HT TIP3
478 160 3 -0.834000 7.385000 12.623000 45.300999 # OT TIP3
479 160 2 0.417000 7.328000 11.815000 45.880001 # HT TIP3
480 160 2 0.417000 8.297000 12.662000 45.042999 # HT TIP3
481 161 3 -0.834000 11.554000 5.591000 57.523998 # OT TIP3
482 161 2 0.417000 11.211000 5.454000 58.384998 # HT TIP3
483 161 2 0.417000 12.478000 5.770000 57.639999 # HT TIP3
484 162 3 -0.834000 7.327000 2.524000 13.811000 # OT TIP3
485 162 2 0.417000 6.485000 3.101000 13.935000 # HT TIP3
486 162 2 0.417000 6.992000 1.703000 14.142000 # HT TIP3
487 163 3 -0.834000 18.112000 6.071000 6.276000 # OT TIP3
488 163 2 0.417000 17.520000 6.616000 5.780000 # HT TIP3
489 163 2 0.417000 17.851000 5.169000 6.069000 # HT TIP3
490 164 3 -0.834000 4.328000 7.999000 13.176000 # OT TIP3
491 164 2 0.417000 4.877000 7.493000 12.538000 # HT TIP3
492 164 2 0.417000 3.471000 7.620000 12.944000 # HT TIP3
493 165 3 -0.834000 11.349000 10.180000 27.282000 # OT TIP3
494 165 2 0.417000 11.695000 9.781000 28.055000 # HT TIP3
495 165 2 0.417000 12.205000 10.395000 26.783001 # HT TIP3
496 166 3 -0.834000 22.433001 3.186000 20.243000 # OT TIP3
497 166 2 0.417000 23.229000 2.896000 20.662001 # HT TIP3
498 166 2 0.417000 21.785999 3.128000 20.961000 # HT TIP3
499 167 3 -0.834000 21.275000 7.600000 30.976000 # OT TIP3
500 167 2 0.417000 22.080999 7.030000 30.819000 # HT TIP3
501 167 2 0.417000 21.589001 8.119000 31.705000 # HT TIP3
502 168 3 -0.834000 12.821000 13.316000 47.124001 # OT TIP3
503 168 2 0.417000 13.111000 13.941000 47.935001 # HT TIP3
504 168 2 0.417000 13.565000 12.684000 47.047001 # HT TIP3
505 169 3 -0.834000 12.793000 9.751000 2.615000 # OT TIP3
506 169 2 0.417000 13.208000 10.140000 3.387000 # HT TIP3
507 169 2 0.417000 13.282000 8.941000 2.439000 # HT TIP3
508 170 3 -0.834000 11.477000 9.910000 8.328000 # OT TIP3
509 170 2 0.417000 10.743000 10.472000 8.453000 # HT TIP3
510 170 2 0.417000 11.166000 9.088000 8.698000 # HT TIP3
511 171 3 -0.834000 2.138000 3.506000 15.798000 # OT TIP3
512 171 2 0.417000 2.501000 4.381000 15.945000 # HT TIP3
513 171 2 0.417000 2.417000 3.299000 14.822000 # HT TIP3