LAMMPS data file. CGCMM style. atom_style full generated by VMD/TopoTools v1.1 on Sun Nov 18 21:58:46 +0800 2012
 4381 atoms
 2774 bonds
 1387 angles
 0 dihedrals
 0 impropers
 4 atom types
 1 bond types
 1 angle types
 0 dihedral types
 0 improper types
 0.313000 29.413000  xlo xhi
 0.347001 29.147000  ylo yhi
 76.488007 139.588005  zlo zhi

# Pair Coeffs
#
# 1  CLA
# 2  HT
# 3  OT
# 4  SOD

# Bond Coeffs
#
# 1  

# Angle Coeffs
#
# 1  unknown

 Masses

 1 35.452999 # CLA
 2 1.007940 # HT
 3 15.999400 # OT
 4 22.989771 # SOD

 Atoms

1 1 3 -0.834000 3.968000 10.382000 92.403999 # OT TIP3
2 1 2 0.417000 3.524000 10.751000 91.600998 # HT TIP3
3 1 2 0.417000 3.392000 10.679000 93.126999 # HT TIP3
4 2 3 -0.834000 6.333000 5.176000 97.390999 # OT TIP3
5 2 2 0.417000 6.378000 5.524000 98.297997 # HT TIP3
6 2 2 0.417000 6.892000 4.388000 97.460999 # HT TIP3
7 3 3 -0.834000 4.869000 4.260000 106.387001 # OT TIP3
8 3 2 0.417000 4.259000 3.460000 106.480003 # HT TIP3
9 3 2 0.417000 4.295000 4.955000 105.921997 # HT TIP3
10 4 3 -0.834000 1.275000 14.307000 115.067001 # OT TIP3
11 4 2 0.417000 1.437000 13.563000 114.466003 # HT TIP3
12 4 2 0.417000 0.919000 13.839000 115.860001 # HT TIP3
13 5 3 -0.834000 6.687000 0.674000 127.356003 # OT TIP3
14 5 2 0.417000 6.606000 0.400000 126.424004 # HT TIP3
15 5 2 0.417000 7.456000 1.326000 127.274002 # HT TIP3
16 6 3 -0.834000 1.224000 4.549000 126.731003 # OT TIP3
17 6 2 0.417000 1.653000 4.014000 127.490997 # HT TIP3
18 6 2 0.417000 0.960000 5.386000 127.217003 # HT TIP3
19 7 3 -0.834000 6.836000 3.342000 132.893005 # OT TIP3
20 7 2 0.417000 7.223000 2.844000 132.106003 # HT TIP3
21 7 2 0.417000 7.515000 4.066000 133.085007 # HT TIP3
22 8 3 -0.834000 5.486000 16.996000 88.571999 # OT TIP3
23 8 2 0.417000 6.383000 17.278999 88.316002 # HT TIP3
24 8 2 0.417000 5.637000 16.132000 88.989998 # HT TIP3
25 9 3 -0.834000 14.737000 6.094000 107.056000 # OT TIP3
26 9 2 0.417000 13.824000 5.619000 107.031998 # HT TIP3
27 9 2 0.417000 15.284000 5.413000 107.473000 # HT TIP3
28 10 3 -0.834000 11.762000 26.326000 107.873001 # OT TIP3
29 10 2 0.417000 11.686000 26.995001 108.575996 # HT TIP3
30 10 2 0.417000 10.919000 26.379999 107.435997 # HT TIP3
31 11 3 -0.834000 8.737000 2.469000 128.151001 # OT TIP3
32 11 2 0.417000 9.339000 2.700000 127.392998 # HT TIP3
33 11 2 0.417000 8.571000 3.212000 128.643997 # HT TIP3
34 12 3 -0.834000 7.939000 9.897000 138.725998 # OT TIP3
35 12 2 0.417000 7.673000 10.648000 138.085999 # HT TIP3
36 12 2 0.417000 7.040000 9.719000 139.089996 # HT TIP3
37 13 3 -0.834000 3.609000 8.010000 138.143005 # OT TIP3
38 13 2 0.417000 3.908000 8.529000 138.970993 # HT TIP3
39 13 2 0.417000 3.026000 7.334000 138.464996 # HT TIP3
40 14 3 -0.834000 6.505000 7.291000 94.942001 # OT TIP3
41 14 2 0.417000 7.082000 7.647000 95.652000 # HT TIP3
42 14 2 0.417000 5.609000 7.362000 95.300003 # HT TIP3
43 15 3 -0.834000 16.426001 15.001000 81.077003 # OT TIP3
44 15 2 0.417000 16.370001 14.572000 80.225998 # HT TIP3
45 15 2 0.417000 17.105000 15.754000 80.945000 # HT TIP3
46 16 3 -0.834000 3.050000 9.144000 86.128998 # OT TIP3
47 16 2 0.417000 2.410000 8.590000 86.498001 # HT TIP3
48 16 2 0.417000 2.464000 9.545000 85.461998 # HT TIP3
49 17 3 -0.834000 4.235000 16.495001 98.609001 # OT TIP3
50 17 2 0.417000 5.170000 16.334000 98.485001 # HT TIP3
51 17 2 0.417000 3.955000 15.667000 99.081001 # HT TIP3
52 18 3 -0.834000 3.291000 11.462000 104.360001 # OT TIP3
53 18 2 0.417000 3.894000 11.268000 103.628998 # HT TIP3
54 18 2 0.417000 2.714000 12.075000 103.930000 # HT TIP3
55 19 3 -0.834000 4.540000 7.337000 103.581001 # OT TIP3
56 19 2 0.417000 4.956000 8.131000 103.157997 # HT TIP3
57 19 2 0.417000 4.086000 7.728000 104.311996 # HT TIP3
58 20 3 -0.834000 3.894000 13.750000 137.830002 # OT TIP3
59 20 2 0.417000 3.050000 14.322000 137.709000 # HT TIP3
60 20 2 0.417000 3.620000 12.803000 137.944000 # HT TIP3
61 21 3 -0.834000 10.974000 9.209000 81.486000 # OT TIP3
62 21 2 0.417000 11.298000 9.171000 82.431999 # HT TIP3
63 21 2 0.417000 10.048000 9.570000 81.574997 # HT TIP3
64 22 3 -0.834000 0.302000 5.967000 91.091003 # OT TIP3
65 22 2 0.417000 0.783000 6.290000 90.330002 # HT TIP3
66 22 2 0.417000 0.908000 6.081000 91.847000 # HT TIP3
67 23 3 -0.834000 8.264000 6.407000 105.953003 # OT TIP3
68 23 2 0.417000 8.542000 5.506000 106.098999 # HT TIP3
69 23 2 0.417000 8.722000 6.845000 106.737000 # HT TIP3
70 24 3 -0.834000 24.476999 14.571000 114.625999 # OT TIP3
71 24 2 0.417000 23.834000 14.242000 113.959000 # HT TIP3
72 24 2 0.417000 25.362000 14.382000 114.181999 # HT TIP3
73 25 3 -0.834000 6.616000 5.588000 103.995003 # OT TIP3
74 25 2 0.417000 6.940000 5.931000 104.862999 # HT TIP3
75 25 2 0.417000 5.863000 6.152000 103.779999 # HT TIP3
76 26 3 -0.834000 2.678000 16.555000 128.699997 # OT TIP3
77 26 2 0.417000 2.603000 15.573000 128.764999 # HT TIP3
78 26 2 0.417000 3.002000 16.773001 129.643005 # HT TIP3
79 27 3 -0.834000 5.525000 20.552000 136.041000 # OT TIP3
80 27 2 0.417000 6.301000 20.121000 135.550003 # HT TIP3
81 27 2 0.417000 4.720000 20.204000 135.626007 # HT TIP3
82 28 3 -0.834000 1.961000 6.981000 78.443001 # OT TIP3
83 28 2 0.417000 2.243000 6.039000 78.481003 # HT TIP3
84 28 2 0.417000 1.078000 6.899000 77.983002 # HT TIP3
85 29 3 -0.834000 5.121000 20.903000 87.738998 # OT TIP3
86 29 2 0.417000 5.766000 21.082001 88.462997 # HT TIP3
87 29 2 0.417000 5.684000 21.214001 86.956001 # HT TIP3
88 30 3 -0.834000 15.322000 21.155001 89.331001 # OT TIP3
89 30 2 0.417000 14.522000 21.108999 89.792000 # HT TIP3
90 30 2 0.417000 14.973000 21.357000 88.417999 # HT TIP3
91 31 3 -0.834000 1.639000 4.082000 99.314003 # OT TIP3
92 31 2 0.417000 1.139000 3.725000 98.586998 # HT TIP3
93 31 2 0.417000 2.075000 3.377000 99.638000 # HT TIP3
94 32 3 -0.834000 0.785000 15.437000 98.975998 # OT TIP3
95 32 2 0.417000 0.944000 15.725000 99.848999 # HT TIP3
96 32 2 0.417000 0.612000 16.261000 98.474998 # HT TIP3
97 33 3 -0.834000 13.443000 14.095000 109.978996 # OT TIP3
98 33 2 0.417000 13.231000 13.853000 110.856003 # HT TIP3
99 33 2 0.417000 13.823000 14.962000 110.018997 # HT TIP3
100 34 3 -0.834000 12.721000 20.895000 107.843002 # OT TIP3
101 34 2 0.417000 12.630000 20.921000 108.803001 # HT TIP3
102 34 2 0.417000 12.581000 21.826000 107.563004 # HT TIP3
103 35 3 -0.834000 10.255000 17.933001 117.707001 # OT TIP3
104 35 2 0.417000 9.341000 18.160999 117.866997 # HT TIP3
105 35 2 0.417000 10.505000 17.263000 118.447998 # HT TIP3
106 36 3 -0.834000 7.542000 27.120001 132.785004 # OT TIP3
107 36 2 0.417000 7.309000 26.351999 132.244995 # HT TIP3
108 36 2 0.417000 7.123000 27.849001 132.222000 # HT TIP3
109 37 3 -0.834000 5.908000 24.218000 89.459000 # OT TIP3
110 37 2 0.417000 5.140000 23.922001 89.044998 # HT TIP3
111 37 2 0.417000 6.337000 24.636000 88.708000 # HT TIP3
112 38 3 -0.834000 10.726000 7.904000 78.903999 # OT TIP3
113 38 2 0.417000 11.061000 8.701000 78.494003 # HT TIP3
114 38 2 0.417000 10.548000 8.189000 79.807999 # HT TIP3
115 39 3 -0.834000 8.869000 25.983999 88.710999 # OT TIP3
116 39 2 0.417000 9.423000 25.841999 89.514999 # HT TIP3
117 39 2 0.417000 9.105000 26.895000 88.427002 # HT TIP3
118 40 3 -0.834000 4.569000 23.052000 92.764999 # OT TIP3
119 40 2 0.417000 4.449000 23.980000 92.388000 # HT TIP3
120 40 2 0.417000 5.361000 23.096001 93.276001 # HT TIP3
121 41 3 -0.834000 3.899000 13.989000 100.083000 # OT TIP3
122 41 2 0.417000 3.730000 13.176000 100.561996 # HT TIP3
123 41 2 0.417000 4.861000 14.069000 100.161003 # HT TIP3
124 42 3 -0.834000 20.252001 2.261000 102.664001 # OT TIP3
125 42 2 0.417000 20.714001 1.379000 102.579002 # HT TIP3
126 42 2 0.417000 20.966999 2.953000 102.513000 # HT TIP3
127 43 3 -0.834000 4.378000 21.104000 126.765999 # OT TIP3
128 43 2 0.417000 4.802000 21.409000 127.560997 # HT TIP3
129 43 2 0.417000 3.693000 20.389000 127.098000 # HT TIP3
130 44 3 -0.834000 14.313000 11.975000 135.138000 # OT TIP3
131 44 2 0.417000 15.050000 11.344000 135.274994 # HT TIP3
132 44 2 0.417000 13.553000 11.357000 135.195007 # HT TIP3
133 45 3 -0.834000 13.443000 13.608000 138.923996 # OT TIP3
134 45 2 0.417000 14.170000 14.338000 138.813004 # HT TIP3
135 45 2 0.417000 13.040000 13.575000 138.020996 # HT TIP3
136 46 3 -0.834000 11.226000 5.665000 77.517998 # OT TIP3
137 46 2 0.417000 11.438000 5.069000 78.253998 # HT TIP3
138 46 2 0.417000 10.957000 6.512000 77.992996 # HT TIP3
139 47 3 -0.834000 8.947000 4.614000 95.778000 # OT TIP3
140 47 2 0.417000 8.264000 3.911000 95.825996 # HT TIP3
141 47 2 0.417000 8.343000 5.364000 95.653000 # HT TIP3
142 48 3 -0.834000 8.681000 17.618999 99.775002 # OT TIP3
143 48 2 0.417000 7.816000 17.639999 100.195000 # HT TIP3
144 48 2 0.417000 8.731000 18.563000 99.509003 # HT TIP3
145 49 3 -0.834000 4.642000 11.688000 101.771004 # OT TIP3
146 49 2 0.417000 5.142000 10.997000 102.178001 # HT TIP3
147 49 2 0.417000 5.203000 12.448000 102.078003 # HT TIP3
148 50 3 -0.834000 1.970000 15.975000 105.666000 # OT TIP3
149 50 2 0.417000 2.420000 16.250000 106.473999 # HT TIP3
150 50 2 0.417000 1.063000 15.817000 105.968002 # HT TIP3
151 51 3 -0.834000 16.770000 28.389000 78.681000 # OT TIP3
152 51 2 0.417000 17.153999 27.530001 78.999001 # HT TIP3
153 51 2 0.417000 15.833000 28.156000 78.587997 # HT TIP3
154 52 3 -0.834000 7.982000 16.764999 137.567001 # OT TIP3
155 52 2 0.417000 7.034000 16.921000 137.582993 # HT TIP3
156 52 2 0.417000 8.282000 17.268999 138.384003 # HT TIP3
157 53 3 -0.834000 6.321000 7.784000 133.608994 # OT TIP3
158 53 2 0.417000 5.965000 8.262000 134.378006 # HT TIP3
159 53 2 0.417000 6.457000 8.408000 132.970001 # HT TIP3
160 54 3 -0.834000 1.102000 25.384001 82.023003 # OT TIP3
161 54 2 0.417000 0.879000 26.365000 82.004997 # HT TIP3
162 54 2 0.417000 2.095000 25.462999 81.945000 # HT TIP3
163 55 3 -0.834000 4.599000 18.073999 83.668999 # OT TIP3
164 55 2 0.417000 3.603000 18.103001 83.821999 # HT TIP3
165 55 2 0.417000 4.833000 19.055000 83.424004 # HT TIP3
166 56 3 -0.834000 9.192000 13.277000 81.820999 # OT TIP3
167 56 2 0.417000 8.419000 12.778000 81.943001 # HT TIP3
168 56 2 0.417000 9.642000 12.857000 81.036003 # HT TIP3
169 57 3 -0.834000 3.008000 21.268999 101.003998 # OT TIP3
170 57 2 0.417000 2.889000 21.245001 100.056000 # HT TIP3
171 57 2 0.417000 3.423000 22.135000 101.049004 # HT TIP3
172 58 3 -0.834000 2.728000 13.031000 106.987000 # OT TIP3
173 58 2 0.417000 3.019000 12.373000 106.330002 # HT TIP3
174 58 2 0.417000 2.882000 13.842000 106.508003 # HT TIP3
175 59 3 -0.834000 14.073000 17.896000 123.613998 # OT TIP3
176 59 2 0.417000 13.129000 18.024000 123.723999 # HT TIP3
177 59 2 0.417000 14.343000 17.448000 124.474998 # HT TIP3
178 60 3 -0.834000 3.793000 8.308000 130.307999 # OT TIP3
179 60 2 0.417000 4.739000 8.643000 130.181000 # HT TIP3
180 60 2 0.417000 3.242000 9.041000 129.959000 # HT TIP3
181 61 3 -0.834000 2.474000 18.768000 78.711998 # OT TIP3
182 61 2 0.417000 2.932000 17.927999 78.703003 # HT TIP3
183 61 2 0.417000 3.231000 19.420000 78.780998 # HT TIP3
184 62 3 -0.834000 5.348000 9.346000 113.078003 # OT TIP3
185 62 2 0.417000 5.364000 10.189000 113.558998 # HT TIP3
186 62 2 0.417000 4.922000 9.524000 112.242996 # HT TIP3
187 63 3 -0.834000 12.690000 27.607000 113.860001 # OT TIP3
188 63 2 0.417000 12.145000 28.413000 113.792999 # HT TIP3
189 63 2 0.417000 12.345000 27.219999 114.675003 # HT TIP3
190 64 3 -0.834000 19.170000 21.760000 105.471001 # OT TIP3
191 64 2 0.417000 18.202999 21.587999 105.221001 # HT TIP3
192 64 2 0.417000 19.374001 20.990999 106.091003 # HT TIP3
193 65 3 -0.834000 10.994000 17.077000 138.531006 # OT TIP3
194 65 2 0.417000 10.545000 17.549999 139.298004 # HT TIP3
195 65 2 0.417000 10.753000 16.181999 138.744995 # HT TIP3
196 66 3 -0.834000 2.429000 21.740000 122.120003 # OT TIP3
197 66 2 0.417000 2.829000 22.583000 122.411003 # HT TIP3
198 66 2 0.417000 1.690000 21.709000 122.734001 # HT TIP3
199 67 3 -0.834000 12.565000 22.184999 128.386002 # OT TIP3
200 67 2 0.417000 12.953000 21.427000 127.869003 # HT TIP3
201 67 2 0.417000 13.264000 22.847000 128.365005 # HT TIP3
202 68 3 -0.834000 1.587000 24.431999 100.237000 # OT TIP3
203 68 2 0.417000 1.535000 24.224001 101.231003 # HT TIP3
204 68 2 0.417000 2.388000 25.009001 100.139000 # HT TIP3
205 69 3 -0.834000 1.737000 24.590000 130.955002 # OT TIP3
206 69 2 0.417000 0.976000 24.966000 130.427994 # HT TIP3
207 69 2 0.417000 2.347000 24.416000 130.292999 # HT TIP3
208 70 3 -0.834000 6.665000 2.974000 104.558998 # OT TIP3
209 70 2 0.417000 6.099000 3.737000 104.348999 # HT TIP3
210 70 2 0.417000 7.475000 3.355000 104.903000 # HT TIP3
211 71 3 -0.834000 4.804000 16.332001 138.057007 # OT TIP3
212 71 2 0.417000 4.802000 15.315000 138.240997 # HT TIP3
213 71 2 0.417000 4.009000 16.407000 137.460007 # HT TIP3
214 72 3 -0.834000 4.998000 5.369000 133.845993 # OT TIP3
215 72 2 0.417000 5.654000 4.628000 133.688004 # HT TIP3
216 72 2 0.417000 5.547000 6.134000 134.050003 # HT TIP3
217 73 3 -0.834000 9.639000 7.038000 108.401001 # OT TIP3
218 73 2 0.417000 9.204000 7.536000 109.134003 # HT TIP3
219 73 2 0.417000 9.704000 6.138000 108.722000 # HT TIP3
220 74 3 -0.834000 4.096000 11.855000 133.862000 # OT TIP3
221 74 2 0.417000 4.125000 12.673000 133.369003 # HT TIP3
222 74 2 0.417000 3.746000 11.172000 133.285995 # HT TIP3
223 75 3 -0.834000 15.714000 6.869000 79.000999 # OT TIP3
224 75 2 0.417000 16.524000 7.158000 78.627998 # HT TIP3
225 75 2 0.417000 15.108000 7.000000 78.170998 # HT TIP3
226 76 3 -0.834000 10.235000 13.176000 86.691002 # OT TIP3
227 76 2 0.417000 10.009000 12.398000 86.134003 # HT TIP3
228 76 2 0.417000 9.772000 13.066000 87.517998 # HT TIP3
229 77 3 -0.834000 7.360000 2.374000 96.330002 # OT TIP3
230 77 2 0.417000 7.950000 1.919000 97.028000 # HT TIP3
231 77 2 0.417000 6.448000 2.096000 96.535004 # HT TIP3
232 78 3 -0.834000 11.195000 19.625000 115.564003 # OT TIP3
233 78 2 0.417000 10.667000 19.068001 116.168999 # HT TIP3
234 78 2 0.417000 12.086000 19.257999 115.728996 # HT TIP3
235 79 3 -0.834000 10.257000 15.080000 125.233002 # OT TIP3
236 79 2 0.417000 10.358000 14.475000 124.472000 # HT TIP3
237 79 2 0.417000 9.407000 15.496000 125.017998 # HT TIP3
238 80 3 -0.834000 9.508000 6.596000 135.832993 # OT TIP3
239 80 2 0.417000 9.756000 6.249000 136.675995 # HT TIP3
240 80 2 0.417000 8.903000 7.345000 136.054001 # HT TIP3
241 81 3 -0.834000 2.224000 3.277000 129.063004 # OT TIP3
242 81 2 0.417000 2.263000 3.798000 129.878998 # HT TIP3
243 81 2 0.417000 1.833000 2.426000 129.360992 # HT TIP3
244 82 3 -0.834000 14.191000 2.219000 79.491997 # OT TIP3
245 82 2 0.417000 14.498000 2.981000 79.921997 # HT TIP3
246 82 2 0.417000 13.512000 1.877000 80.078003 # HT TIP3
247 83 3 -0.834000 9.123000 10.881000 85.327003 # OT TIP3
248 83 2 0.417000 8.483000 11.053000 84.648003 # HT TIP3
249 83 2 0.417000 8.689000 10.361000 86.033997 # HT TIP3
250 84 3 -0.834000 9.378000 12.267000 89.234001 # OT TIP3
251 84 2 0.417000 8.528000 11.861000 89.492996 # HT TIP3
252 84 2 0.417000 9.812000 12.494000 90.059998 # HT TIP3
253 85 3 -0.834000 8.669000 17.458000 124.935997 # OT TIP3
254 85 2 0.417000 8.283000 17.320999 124.074997 # HT TIP3
255 85 2 0.417000 8.064000 18.188000 125.285004 # HT TIP3
256 86 3 -0.834000 4.918000 8.425000 84.277000 # OT TIP3
257 86 2 0.417000 5.705000 8.219000 84.814003 # HT TIP3
258 86 2 0.417000 4.302000 8.758000 84.921997 # HT TIP3
259 87 3 -0.834000 3.703000 4.987000 86.315002 # OT TIP3
260 87 2 0.417000 3.409000 5.572000 85.597000 # HT TIP3
261 87 2 0.417000 4.117000 4.273000 85.827003 # HT TIP3
262 88 3 -0.834000 3.576000 7.765000 95.824997 # OT TIP3
263 88 2 0.417000 3.072000 7.291000 96.463997 # HT TIP3
264 88 2 0.417000 3.904000 8.588000 96.252998 # HT TIP3
265 89 3 -0.834000 3.191000 5.344000 109.112999 # OT TIP3
266 89 2 0.417000 2.560000 4.820000 109.650002 # HT TIP3
267 89 2 0.417000 2.603000 5.810000 108.519997 # HT TIP3
268 90 3 -0.834000 2.140000 8.565000 105.162003 # OT TIP3
269 90 2 0.417000 1.980000 8.344000 104.247002 # HT TIP3
270 90 2 0.417000 2.134000 9.511000 105.233002 # HT TIP3
271 91 3 -0.834000 10.000000 13.393000 122.944000 # OT TIP3
272 91 2 0.417000 10.812000 13.455000 122.512001 # HT TIP3
273 91 2 0.417000 10.081000 12.493000 123.254997 # HT TIP3
274 92 3 -0.834000 1.037000 18.202000 113.589996 # OT TIP3
275 92 2 0.417000 0.759000 19.091999 113.851997 # HT TIP3
276 92 2 0.417000 1.166000 18.249001 112.647003 # HT TIP3
277 93 3 -0.834000 20.775000 18.462000 130.235992 # OT TIP3
278 93 2 0.417000 20.742001 19.483999 130.042007 # HT TIP3
279 93 2 0.417000 20.141001 18.056999 129.613007 # HT TIP3
280 94 3 -0.834000 10.227000 4.485000 109.305000 # OT TIP3
281 94 2 0.417000 9.356000 4.235000 109.702003 # HT TIP3
282 94 2 0.417000 10.660000 3.625000 109.165001 # HT TIP3
283 95 3 -0.834000 21.065001 16.518000 124.872002 # OT TIP3
284 95 2 0.417000 21.122000 16.458000 123.889999 # HT TIP3
285 95 2 0.417000 21.895000 16.157000 125.198997 # HT TIP3
286 96 3 -0.834000 1.197000 4.774000 131.218994 # OT TIP3
287 96 2 0.417000 1.622000 5.643000 131.251999 # HT TIP3
288 96 2 0.417000 0.490000 4.876000 131.843994 # HT TIP3
289 97 3 -0.834000 2.152000 11.007000 138.251007 # OT TIP3
290 97 2 0.417000 2.932000 10.415000 138.352997 # HT TIP3
291 97 2 0.417000 1.875000 11.285000 139.156006 # HT TIP3
292 98 3 -0.834000 3.419000 10.625000 89.657997 # OT TIP3
293 98 2 0.417000 3.898000 11.200000 89.012001 # HT TIP3
294 98 2 0.417000 3.740000 9.730000 89.461998 # HT TIP3
295 99 3 -0.834000 2.678000 6.106000 92.752998 # OT TIP3
296 99 2 0.417000 2.457000 6.461000 93.598999 # HT TIP3
297 99 2 0.417000 3.601000 6.332000 92.625999 # HT TIP3
298 100 3 -0.834000 6.682000 22.570999 78.819000 # OT TIP3
299 100 2 0.417000 5.850000 22.334999 78.347000 # HT TIP3
300 100 2 0.417000 7.159000 21.771999 78.692001 # HT TIP3
301 101 3 -0.834000 2.644000 20.771999 98.130997 # OT TIP3
302 101 2 0.417000 3.232000 21.121000 97.445000 # HT TIP3
303 101 2 0.417000 1.767000 20.848000 97.638000 # HT TIP3
304 102 3 -0.834000 20.913000 13.916000 87.566002 # OT TIP3
305 102 2 0.417000 21.039000 14.259000 86.718002 # HT TIP3
306 102 2 0.417000 19.919001 14.116000 87.750000 # HT TIP3
307 103 3 -0.834000 2.087000 9.818000 101.014999 # OT TIP3
308 103 2 0.417000 2.432000 9.875000 100.146004 # HT TIP3
309 103 2 0.417000 2.160000 10.706000 101.287003 # HT TIP3
310 104 3 -0.834000 4.427000 2.170000 109.261002 # OT TIP3
311 104 2 0.417000 4.130000 2.572000 108.488998 # HT TIP3
312 104 2 0.417000 5.030000 2.862000 109.598000 # HT TIP3
313 105 3 -0.834000 11.581000 12.713000 132.953003 # OT TIP3
314 105 2 0.417000 11.662000 12.019000 133.641006 # HT TIP3
315 105 2 0.417000 11.958000 12.294000 132.149002 # HT TIP3
316 106 3 -0.834000 10.500000 20.389999 139.188995 # OT TIP3
317 106 2 0.417000 10.699000 21.325001 139.455994 # HT TIP3
318 106 2 0.417000 9.612000 20.448999 139.016006 # HT TIP3
319 107 3 -0.834000 8.265000 5.756000 133.177994 # OT TIP3
320 107 2 0.417000 8.695000 5.911000 133.988998 # HT TIP3
321 107 2 0.417000 7.585000 6.443000 133.177002 # HT TIP3
322 108 3 -0.834000 1.547000 15.193000 137.518005 # OT TIP3
323 108 2 0.417000 1.376000 16.163000 137.658997 # HT TIP3
324 108 2 0.417000 0.900000 14.770000 138.050003 # HT TIP3
325 109 3 -0.834000 9.176000 28.737000 82.079002 # OT TIP3
326 109 2 0.417000 9.527000 27.877001 81.858002 # HT TIP3
327 109 2 0.417000 9.090000 28.698000 83.032997 # HT TIP3
328 110 3 -0.834000 5.873000 15.104000 95.589996 # OT TIP3
329 110 2 0.417000 6.259000 15.639000 96.307999 # HT TIP3
330 110 2 0.417000 6.169000 15.713000 94.831001 # HT TIP3
331 111 3 -0.834000 23.172001 18.740999 93.288002 # OT TIP3
332 111 2 0.417000 22.500999 18.164000 92.878998 # HT TIP3
333 111 2 0.417000 22.635000 19.281000 93.925003 # HT TIP3
334 112 3 -0.834000 10.405000 1.141000 115.611000 # OT TIP3
335 112 2 0.417000 9.788000 1.750000 115.130997 # HT TIP3
336 112 2 0.417000 10.932000 1.718000 116.205002 # HT TIP3
337 113 3 -0.834000 8.247000 20.910999 130.468002 # OT TIP3
338 113 2 0.417000 8.020000 20.493000 131.274002 # HT TIP3
339 113 2 0.417000 8.844000 21.660999 130.748993 # HT TIP3
340 114 3 -0.834000 1.042000 20.947001 113.924004 # OT TIP3
341 114 2 0.417000 0.463000 21.502001 113.355003 # HT TIP3
342 114 2 0.417000 1.832000 20.709999 113.336998 # HT TIP3
343 115 3 -0.834000 5.758000 13.397000 81.088997 # OT TIP3
344 115 2 0.417000 5.973000 13.319000 80.112000 # HT TIP3
345 115 2 0.417000 5.199000 14.194000 81.156998 # HT TIP3
346 116 3 -0.834000 9.269000 17.306999 132.218002 # OT TIP3
347 116 2 0.417000 9.942000 16.646999 132.115005 # HT TIP3
348 116 2 0.417000 9.313000 17.469000 133.158005 # HT TIP3
349 117 3 -0.834000 28.149000 10.168000 95.672997 # OT TIP3
350 117 2 0.417000 27.469999 10.020000 96.362999 # HT TIP3
351 117 2 0.417000 27.702999 10.719000 94.988998 # HT TIP3
352 118 3 -0.834000 4.894000 25.566000 91.699997 # OT TIP3
353 118 2 0.417000 3.938000 25.799999 91.695999 # HT TIP3
354 118 2 0.417000 5.058000 25.197001 90.811996 # HT TIP3
355 119 3 -0.834000 11.266000 0.787000 104.164001 # OT TIP3
356 119 2 0.417000 11.135000 1.723000 103.974998 # HT TIP3
357 119 2 0.417000 10.858000 0.392000 103.383003 # HT TIP3
358 120 3 -0.834000 6.880000 13.292000 106.191002 # OT TIP3
359 120 2 0.417000 6.730000 14.186000 106.472000 # HT TIP3
360 120 2 0.417000 6.729000 12.799000 106.981003 # HT TIP3
361 121 3 -0.834000 5.460000 14.044000 84.454002 # OT TIP3
362 121 2 0.417000 6.348000 13.722000 84.707001 # HT TIP3
363 121 2 0.417000 5.308000 14.793000 85.028000 # HT TIP3
364 122 3 -0.834000 3.648000 27.386999 120.869003 # OT TIP3
365 122 2 0.417000 4.147000 27.555000 121.724998 # HT TIP3
366 122 2 0.417000 3.113000 26.635000 121.161003 # HT TIP3
367 123 3 -0.834000 10.690000 6.686000 95.328003 # OT TIP3
368 123 2 0.417000 10.988000 6.784000 96.231003 # HT TIP3
369 123 2 0.417000 10.144000 5.889000 95.420998 # HT TIP3
370 124 3 -0.834000 1.978000 22.242001 77.535004 # OT TIP3
371 124 2 0.417000 1.572000 21.580000 78.092003 # HT TIP3
372 124 2 0.417000 1.798000 23.108999 77.992996 # HT TIP3
373 125 3 -0.834000 9.930000 21.847000 79.500000 # OT TIP3
374 125 2 0.417000 9.901000 22.771000 79.142998 # HT TIP3
375 125 2 0.417000 9.587000 21.254000 78.811996 # HT TIP3
376 126 3 -0.834000 6.752000 12.723000 137.373993 # OT TIP3
377 126 2 0.417000 7.297000 13.094000 136.625000 # HT TIP3
378 126 2 0.417000 5.887000 13.222000 137.367004 # HT TIP3
379 127 3 -0.834000 2.644000 10.871000 79.124001 # OT TIP3
380 127 2 0.417000 2.422000 11.053000 80.053001 # HT TIP3
381 127 2 0.417000 3.247000 10.091000 79.116997 # HT TIP3
382 128 3 -0.834000 8.423000 8.190000 110.605003 # OT TIP3
383 128 2 0.417000 8.583000 7.839000 111.539001 # HT TIP3
384 128 2 0.417000 9.029000 8.934000 110.500000 # HT TIP3
385 129 3 -0.834000 13.685000 10.069000 105.953003 # OT TIP3
386 129 2 0.417000 14.156000 10.691000 106.561996 # HT TIP3
387 129 2 0.417000 12.899000 9.813000 106.464996 # HT TIP3
388 130 3 -0.834000 5.454000 10.181000 126.596001 # OT TIP3
389 130 2 0.417000 6.320000 10.353000 126.088997 # HT TIP3
390 130 2 0.417000 4.864000 10.543000 125.910004 # HT TIP3
391 131 3 -0.834000 1.123000 23.968000 79.388000 # OT TIP3
392 131 2 0.417000 1.936000 23.615999 79.839996 # HT TIP3
393 131 2 0.417000 0.553000 24.278000 80.139999 # HT TIP3
394 132 3 -0.834000 13.654000 15.058000 125.147003 # OT TIP3
395 132 2 0.417000 14.620000 14.664000 125.186996 # HT TIP3
396 132 2 0.417000 13.130000 14.510000 125.717003 # HT TIP3
397 133 3 -0.834000 3.911000 19.941000 130.798996 # OT TIP3
398 133 2 0.417000 3.125000 20.468000 130.996002 # HT TIP3
399 133 2 0.417000 4.558000 20.271999 131.431000 # HT TIP3
400 134 3 -0.834000 16.372999 24.020000 125.415001 # OT TIP3
401 134 2 0.417000 17.027000 23.333000 125.644997 # HT TIP3
402 134 2 0.417000 16.837000 24.670000 124.861000 # HT TIP3
403 135 3 -0.834000 2.383000 28.632000 83.825996 # OT TIP3
404 135 2 0.417000 1.858000 28.813999 84.614998 # HT TIP3
405 135 2 0.417000 1.796000 28.037001 83.310997 # HT TIP3
406 136 3 -0.834000 1.295000 28.320999 86.514999 # OT TIP3
407 136 2 0.417000 0.313000 28.281000 86.542999 # HT TIP3
408 136 2 0.417000 1.598000 27.419001 86.763000 # HT TIP3
409 137 3 -0.834000 3.010000 6.485000 84.040001 # OT TIP3
410 137 2 0.417000 2.767000 6.536000 83.060997 # HT TIP3
411 137 2 0.417000 3.710000 7.155000 84.080002 # HT TIP3
412 138 3 -0.834000 13.636000 24.761000 113.285004 # OT TIP3
413 138 2 0.417000 13.539000 25.464001 113.933998 # HT TIP3
414 138 2 0.417000 13.993000 24.013000 113.744003 # HT TIP3
415 139 3 -0.834000 3.134000 15.343000 110.874001 # OT TIP3
416 139 2 0.417000 2.579000 15.107000 111.623001 # HT TIP3
417 139 2 0.417000 3.907000 14.849000 111.002998 # HT TIP3
418 140 3 -0.834000 23.424000 20.929001 122.124001 # OT TIP3
419 140 2 0.417000 22.410000 20.886000 121.871002 # HT TIP3
420 140 2 0.417000 23.594999 19.962999 122.329002 # HT TIP3
421 141 3 -0.834000 5.479000 21.190001 103.887001 # OT TIP3
422 141 2 0.417000 4.918000 21.906000 104.146004 # HT TIP3
423 141 2 0.417000 5.496000 20.511000 104.607002 # HT TIP3
424 142 3 -0.834000 13.782000 23.754999 138.069000 # OT TIP3
425 142 2 0.417000 13.074000 23.584000 138.638000 # HT TIP3
426 142 2 0.417000 14.546000 23.862000 138.723007 # HT TIP3
427 143 3 -0.834000 1.729000 22.711000 127.356003 # OT TIP3
428 143 2 0.417000 1.935000 23.628000 127.106003 # HT TIP3
429 143 2 0.417000 2.659000 22.351000 127.525002 # HT TIP3
430 144 3 -0.834000 16.492001 22.702999 80.281998 # OT TIP3
431 144 2 0.417000 16.663000 23.181000 81.122002 # HT TIP3
432 144 2 0.417000 16.726999 23.365000 79.585999 # HT TIP3
433 145 3 -0.834000 8.689000 18.465000 107.491997 # OT TIP3
434 145 2 0.417000 8.268000 18.070000 106.709999 # HT TIP3
435 145 2 0.417000 8.717000 17.750999 108.140999 # HT TIP3
436 146 3 -0.834000 10.738000 21.537001 117.509003 # OT TIP3
437 146 2 0.417000 11.146000 21.040001 116.767998 # HT TIP3
438 146 2 0.417000 9.877000 21.780001 117.211998 # HT TIP3
439 147 3 -0.834000 15.626000 27.268000 107.902000 # OT TIP3
440 147 2 0.417000 14.753000 27.035999 107.428001 # HT TIP3
441 147 2 0.417000 15.368000 27.920000 108.532997 # HT TIP3
442 148 3 -0.834000 3.571000 19.274000 119.686996 # OT TIP3
443 148 2 0.417000 3.758000 18.372999 119.487999 # HT TIP3
444 148 2 0.417000 3.620000 19.729000 118.813004 # HT TIP3
445 149 3 -0.834000 8.481000 23.764999 84.137001 # OT TIP3
446 149 2 0.417000 9.307000 24.237000 84.203003 # HT TIP3
447 149 2 0.417000 7.817000 24.417000 83.811996 # HT TIP3
448 150 3 -0.834000 11.229000 15.050000 82.218002 # OT TIP3
449 150 2 0.417000 10.350000 14.841000 81.907997 # HT TIP3
450 150 2 0.417000 11.701000 14.179000 82.217003 # HT TIP3
451 151 3 -0.834000 19.959000 25.851999 93.948997 # OT TIP3
452 151 2 0.417000 20.482000 26.646000 93.999001 # HT TIP3
453 151 2 0.417000 19.034000 26.158001 93.880997 # HT TIP3
454 152 3 -0.834000 2.386000 25.752001 94.694000 # OT TIP3
455 152 2 0.417000 2.474000 26.223000 93.893997 # HT TIP3
456 152 2 0.417000 1.572000 26.169001 95.103996 # HT TIP3
457 153 3 -0.834000 1.983000 25.966999 102.832001 # OT TIP3
458 153 2 0.417000 2.880000 26.207001 102.926003 # HT TIP3
459 153 2 0.417000 1.785000 25.527000 103.625999 # HT TIP3
460 154 3 -0.834000 23.631001 21.919001 94.569000 # OT TIP3
461 154 2 0.417000 23.437000 22.816000 94.956001 # HT TIP3
462 154 2 0.417000 22.962999 21.285000 94.949997 # HT TIP3
463 155 3 -0.834000 15.718000 17.591000 126.069000 # OT TIP3
464 155 2 0.417000 16.384001 17.358999 125.456001 # HT TIP3
465 155 2 0.417000 16.284000 18.122000 126.635002 # HT TIP3
466 156 3 -0.834000 0.960000 22.281000 132.473999 # OT TIP3
467 156 2 0.417000 1.291000 22.410999 133.363007 # HT TIP3
468 156 2 0.417000 1.254000 23.049999 131.990997 # HT TIP3
469 157 3 -0.834000 16.806999 17.469999 97.505997 # OT TIP3
470 157 2 0.417000 17.525999 17.306000 96.794998 # HT TIP3
471 157 2 0.417000 16.330000 16.597000 97.582001 # HT TIP3
472 158 3 -0.834000 4.535000 24.709999 128.873993 # OT TIP3
473 158 2 0.417000 4.975000 25.436001 129.320007 # HT TIP3
474 158 2 0.417000 3.876000 25.191000 128.266998 # HT TIP3
475 159 3 -0.834000 1.047000 4.769000 87.079002 # OT TIP3
476 159 2 0.417000 0.726000 3.868000 86.838997 # HT TIP3
477 159 2 0.417000 1.805000 4.885000 86.489998 # HT TIP3
478 160 3 -0.834000 4.437000 9.163000 135.434006 # OT TIP3
479 160 2 0.417000 4.096000 8.813000 136.251007 # HT TIP3
480 160 2 0.417000 4.398000 10.126000 135.574997 # HT TIP3
481 161 3 -0.834000 5.656000 5.688000 92.545998 # OT TIP3
482 161 2 0.417000 6.184000 6.364000 92.960999 # HT TIP3
483 161 2 0.417000 5.892000 4.922000 93.037003 # HT TIP3
484 162 3 -0.834000 2.189000 5.885000 106.041000 # OT TIP3
485 162 2 0.417000 2.238000 6.802000 105.763000 # HT TIP3
486 162 2 0.417000 1.315000 5.612000 105.644997 # HT TIP3
487 163 3 -0.834000 2.981000 2.848000 117.652000 # OT TIP3
488 163 2 0.417000 2.898000 1.890000 117.494003 # HT TIP3
489 163 2 0.417000 3.670000 2.957000 118.370003 # HT TIP3
490 164 3 -0.834000 11.004000 7.021000 92.383003 # OT TIP3
491 164 2 0.417000 11.201000 7.212000 93.335999 # HT TIP3
492 164 2 0.417000 10.427000 6.272000 92.498001 # HT TIP3
493 165 3 -0.834000 2.489000 2.006000 101.377998 # OT TIP3
494 165 2 0.417000 1.764000 1.391000 101.209999 # HT TIP3
495 165 2 0.417000 2.425000 2.105000 102.400002 # HT TIP3
496 166 3 -0.834000 8.164000 10.903000 105.449997 # OT TIP3
497 166 2 0.417000 7.769000 11.575000 106.007004 # HT TIP3
498 166 2 0.417000 7.454000 10.292000 105.282997 # HT TIP3
499 167 3 -0.834000 4.947000 6.932000 114.033997 # OT TIP3
500 167 2 0.417000 4.142000 6.476000 113.697998 # HT TIP3
501 167 2 0.417000 4.930000 7.786000 113.589996 # HT TIP3
502 168 3 -0.834000 10.747000 6.744000 131.369003 # OT TIP3
503 168 2 0.417000 9.835000 6.713000 131.218002 # HT TIP3
504 168 2 0.417000 10.869000 6.350000 132.166000 # HT TIP3
505 169 3 -0.834000 11.193000 8.716000 106.815002 # OT TIP3
506 169 2 0.417000 11.039000 8.087000 106.038002 # HT TIP3
507 169 2 0.417000 10.661000 8.271000 107.473999 # HT TIP3