
    1500 atoms
    1000 bonds
     500 angles
       4 atom types
       1 bond types
       1 angle types

      0.0000     30.0000 xlo xhi
      0.0000     30.0000 ylo yhi
      0.0000     60.0000 zlo zhi

 Masses

 1  1.007940
 2 15.999400
 3 22.989771
 4 35.452999

Atoms

       1       1       2     -1.0484      4.6680     11.0820     91.9040
       2       1       1      0.5242      4.2240     11.4510     91.1010
       3       1       1      0.5242      4.0920     11.3790     92.6270
       4       2       2     -1.0484      7.0330      5.8760     96.8910
       5       2       1      0.5242      7.0780      6.2240     97.7980
       6       2       1      0.5242      7.5920      5.0880     96.9610
       7       3       2     -1.0484      6.1860     17.6960     88.0720
       8       3       1      0.5242      7.0830     17.9790     87.8160
       9       3       1      0.5242      6.3370     16.8320     88.4900
      10       4       2     -1.0484      9.3240     14.8110     97.3320
      11       4       1      0.5242      9.6330     14.3480     98.1120
      12       4       1      0.5242      9.5060     14.1160     96.6450
      13       5       2     -1.0484      4.7860     17.3180     77.3100
      14       5       1      0.5242      4.7810     16.3880     77.1960
      15       5       1      0.5242      5.5280     17.5800     76.7810
      16       6       2     -1.0484      7.2050      7.9910     94.4420
      17       6       1      0.5242      7.7820      8.3470     95.1520
      18       6       1      0.5242      6.3090      8.0620     94.8000
      19       7       2     -1.0484     17.1260     15.7010     80.5770
      20       7       1      0.5242     17.0700     15.2720     79.7260
      21       7       1      0.5242     17.8050     16.4540     80.4450
      22       8       2     -1.0484      3.7500      9.8440     85.6290
      23       8       1      0.5242      3.1100      9.2900     85.9980
      24       8       1      0.5242      3.1640     10.2450     84.9620
      25       9       2     -1.0484      4.9350     17.1950     98.1090
      26       9       1      0.5242      5.8700     17.0340     97.9850
      27       9       1      0.5242      4.6550     16.3670     98.5810
      28      10       2     -1.0484     11.6740      9.9090     80.9860
      29      10       1      0.5242     11.9980      9.8710     81.9320
      30      10       1      0.5242     10.7480     10.2700     81.0750
      31      11       2     -1.0484      1.0020      6.6670     90.5910
      32      11       1      0.5242      1.4830      6.9900     89.8300
      33      11       1      0.5242      1.6080      6.7810     91.3470
      34      12       2     -1.0484     10.8820     10.1560     90.9160
      35      12       1      0.5242     10.5740     10.7530     91.5970
      36      12       1      0.5242     11.0210      9.2640     91.2890
      37      13       2     -1.0484      2.6610      7.6810     77.9430
      38      13       1      0.5242      2.9430      6.7390     77.9810
      39      13       1      0.5242      1.7780      7.5990     77.4830
      40      14       2     -1.0484      5.8210     21.6030     87.2390
      41      14       1      0.5242      6.4660     21.7820     87.9630
      42      14       1      0.5242      6.3840     21.9140     86.4560
      43      15       2     -1.0484     16.0220     21.8550     88.8310
      44      15       1      0.5242     15.2220     21.8090     89.2920
      45      15       1      0.5242     15.6730     22.0570     87.9180
      46      16       2     -1.0484      6.6080     24.9180     88.9590
      47      16       1      0.5242      5.8400     24.6220     88.5450
      48      16       1      0.5242      7.0370     25.3360     88.2080
      49      17       2     -1.0484     11.4260      8.6040     78.4040
      50      17       1      0.5242     11.7610      9.4010     77.9940
      51      17       1      0.5242     11.2480      8.8890     79.3080
      52      18       2     -1.0484      9.5690     26.6840     88.2110
      53      18       1      0.5242     10.1230     26.5420     89.0150
      54      18       1      0.5242      9.8050     27.5950     87.9270
      55      19       2     -1.0484      5.2690     23.7520     92.2650
      56      19       1      0.5242      5.1490     24.6800     91.8880
      57      19       1      0.5242      6.0610     23.7960     92.7760
      58      20       2     -1.0484     23.5720      7.2420     79.4780
      59      20       1      0.5242     22.7050      6.8450     79.8300
      60      20       1      0.5242     23.9510      6.6590     78.8580
      61      21       2     -1.0484     11.9260      6.3650     77.0180
      62      21       1      0.5242     12.1380      5.7690     77.7540
      63      21       1      0.5242     11.6570      7.2120     77.4930
      64      22       2     -1.0484      9.6470      5.3140     95.2780
      65      22       1      0.5242      8.9640      4.6110     95.3260
      66      22       1      0.5242      9.0430      6.0640     95.1530
      67      23       2     -1.0484      1.8020     26.0840     81.5230
      68      23       1      0.5242      1.5790     27.0650     81.5050
      69      23       1      0.5242      2.7950     26.1630     81.4450
      70      24       2     -1.0484      5.2990     18.7740     83.1690
      71      24       1      0.5242      4.3030     18.8030     83.3220
      72      24       1      0.5242      5.5330     19.7550     82.9240
      73      25       2     -1.0484      9.8920     13.9770     81.3210
      74      25       1      0.5242      9.1190     13.4780     81.4430
      75      25       1      0.5242     10.3420     13.5570     80.5360
      76      26       2     -1.0484      3.1740     19.4680     78.2120
      77      26       1      0.5242      3.6320     18.6280     78.2030
      78      26       1      0.5242      3.9310     20.1200     78.2810
      79      27       2     -1.0484     14.6120     18.6800     94.6220
      80      27       1      0.5242     14.7440     18.4140     95.5080
      81      27       1      0.5242     15.5260     18.8310     94.3470
      82      28       2     -1.0484     16.4140      7.5690     78.5010
      83      28       1      0.5242     17.2240      7.8580     78.1280
      84      28       1      0.5242     15.8080      7.7000     77.6710
      85      29       2     -1.0484     10.9350     13.8760     86.1910
      86      29       1      0.5242     10.7090     13.0980     85.6340
      87      29       1      0.5242     10.4720     13.7660     87.0180
      88      30       2     -1.0484      8.0600      3.0740     95.8300
      89      30       1      0.5242      8.6500      2.6190     96.5280
      90      30       1      0.5242      7.1480      2.7960     96.0350
      91      31       2     -1.0484     14.8910      2.9190     78.9920
      92      31       1      0.5242     15.1980      3.6810     79.4220
      93      31       1      0.5242     14.2120      2.5770     79.5780
      94      32       2     -1.0484      9.8230     11.5810     84.8270
      95      32       1      0.5242      9.1830     11.7530     84.1480
      96      32       1      0.5242      9.3890     11.0610     85.5340
      97      33       2     -1.0484     10.0780     12.9670     88.7340
      98      33       1      0.5242      9.2280     12.5610     88.9930
      99      33       1      0.5242     10.5120     13.1940     89.5600
     100      34       2     -1.0484     11.2820      1.6400     78.0530
     101      34       1      0.5242     11.3670      1.9590     79.0160
     102      34       1      0.5242     10.7430      2.3230     77.6670
     103      35       2     -1.0484      5.6180      9.1250     83.7770
     104      35       1      0.5242      6.4050      8.9190     84.3140
     105      35       1      0.5242      5.0020      9.4580     84.4220
     106      36       2     -1.0484      4.4030      5.6870     85.8150
     107      36       1      0.5242      4.1090      6.2720     85.0970
     108      36       1      0.5242      4.8170      4.9730     85.3270
     109      37       2     -1.0484      4.2760      8.4650     95.3250
     110      37       1      0.5242      3.7720      7.9910     95.9640
     111      37       1      0.5242      4.6040      9.2880     95.7530
     112      38       2     -1.0484      4.1190     11.3250     89.1580
     113      38       1      0.5242      4.5980     11.9000     88.5120
     114      38       1      0.5242      4.4400     10.4300     88.9620
     115      39       2     -1.0484      3.3780      6.8060     92.2530
     116      39       1      0.5242      3.1570      7.1610     93.0990
     117      39       1      0.5242      4.3010      7.0320     92.1260
     118      40       2     -1.0484      7.3820     23.2710     78.3190
     119      40       1      0.5242      6.5500     23.0350     77.8470
     120      40       1      0.5242      7.8590     22.4720     78.1920
     121      41       2     -1.0484      5.0170      4.9050     95.4180
     122      41       1      0.5242      4.1420      5.0420     95.1320
     123      41       1      0.5242      5.5820      5.7270     95.2950
     124      42       2     -1.0484      3.3440     21.4720     97.6310
     125      42       1      0.5242      3.9320     21.8210     96.9450
     126      42       1      0.5242      2.4670     21.5480     97.1380
     127      43       2     -1.0484     21.6130     14.6160     87.0660
     128      43       1      0.5242     21.7390     14.9590     86.2180
     129      43       1      0.5242     20.6190     14.8160     87.2500
     130      44       2     -1.0484     15.5260     11.5320     96.1370
     131      44       1      0.5242     15.1620     10.7330     96.5030
     132      44       1      0.5242     15.4660     11.4200     95.1940
     133      45       2     -1.0484     27.1240     17.5940     92.8070
     134      45       1      0.5242     27.9480     17.8640     93.2440
     135      45       1      0.5242     27.1370     18.0480     91.9000
     136      46       2     -1.0484      6.5730     15.8040     95.0900
     137      46       1      0.5242      6.9590     16.3390     95.8080
     138      46       1      0.5242      6.8690     16.4130     94.3310
     139      47       2     -1.0484     17.2830      8.3540     98.7810
     140      47       1      0.5242     16.6400      9.0580     98.4490
     141      47       1      0.5242     16.9730      7.5600     98.3790
     142      48       2     -1.0484     23.8720     19.4410     92.7880
     143      48       1      0.5242     23.2010     18.8640     92.3790
     144      48       1      0.5242     23.3350     19.9810     93.4250
     145      49       2     -1.0484      6.4580     14.0970     80.5890
     146      49       1      0.5242      6.6730     14.0190     79.6120
     147      49       1      0.5242      5.8990     14.8940     80.6570
     148      50       2     -1.0484     28.8490     10.8680     95.1730
     149      50       1      0.5242     28.1700     10.7200     95.8630
     150      50       1      0.5242     28.4030     11.4190     94.4890
     151      51       2     -1.0484      5.5520      2.3700     96.3300
     152      51       1      0.5242      5.2740      3.1940     95.9530
     153      51       1      0.5242      5.2350      1.8010     95.5710
     154      52       2     -1.0484      5.5940     26.2660     91.2000
     155      52       1      0.5242      4.6380     26.5000     91.1960
     156      52       1      0.5242      5.7580     25.8970     90.3120
     157      53       2     -1.0484      6.1600     14.7440     83.9540
     158      53       1      0.5242      7.0480     14.4220     84.2070
     159      53       1      0.5242      6.0080     15.4930     84.5280
     160      54       2     -1.0484     11.3900      7.3860     94.8280
     161      54       1      0.5242     11.6880      7.4840     95.7310
     162      54       1      0.5242     10.8440      6.5890     94.9210
     163      55       2     -1.0484      2.6780     22.9420     77.0350
     164      55       1      0.5242      2.2720     22.2800     77.5920
     165      55       1      0.5242      2.4980     23.8090     77.4930
     166      56       2     -1.0484     10.6300     22.5470     79.0000
     167      56       1      0.5242     10.6010     23.4710     78.6430
     168      56       1      0.5242     10.2870     21.9540     78.3120
     169      57       2     -1.0484      3.3440     11.5710     78.6240
     170      57       1      0.5242      3.1220     11.7530     79.5530
     171      57       1      0.5242      3.9470     10.7910     78.6170
     172      58       2     -1.0484      3.5820     28.6350     98.0630
     173      58       1      0.5242      2.8260     28.3340     98.6100
     174      58       1      0.5242      3.1410     28.8730     97.2270
     175      59       2     -1.0484      1.8230     24.6680     78.8880
     176      59       1      0.5242      2.6360     24.3160     79.3400
     177      59       1      0.5242      1.2530     24.9780     79.6400
     178      60       2     -1.0484     14.2200     25.4940     89.0920
     179      60       1      0.5242     13.8910     26.3830     89.2870
     180      60       1      0.5242     14.0560     24.9180     89.8530
     181      61       2     -1.0484      3.7100      7.1850     83.5400
     182      61       1      0.5242      3.4670      7.2360     82.5610
     183      61       1      0.5242      4.4100      7.8550     83.5800
     184      62       2     -1.0484      7.9110     20.4580     93.3350
     185      62       1      0.5242      8.5170     21.1180     92.9570
     186      62       1      0.5242      7.3150     20.1360     92.5880
     187      63       2     -1.0484     17.1920     23.4030     79.7820
     188      63       1      0.5242     17.3630     23.8810     80.6220
     189      63       1      0.5242     17.4270     24.0650     79.0860
     190      64       2     -1.0484     14.5400     23.2200     78.7480
     191      64       1      0.5242     13.9650     23.4750     79.4620
     192      64       1      0.5242     15.4280     23.4040     79.0740
     193      65       2     -1.0484      9.1810     24.4650     83.6370
     194      65       1      0.5242     10.0070     24.9370     83.7030
     195      65       1      0.5242      8.5170     25.1170     83.3120
     196      66       2     -1.0484     11.9290     15.7500     81.7180
     197      66       1      0.5242     11.0500     15.5410     81.4080
     198      66       1      0.5242     12.4010     14.8790     81.7170
     199      67       2     -1.0484     20.6590     26.5520     93.4490
     200      67       1      0.5242     21.1820     27.3460     93.4990
     201      67       1      0.5242     19.7340     26.8580     93.3810
     202      68       2     -1.0484      3.0860     26.4520     94.1940
     203      68       1      0.5242      3.1740     26.9230     93.3940
     204      68       1      0.5242      2.2720     26.8690     94.6040
     205      69       2     -1.0484     24.3310     22.6190     94.0690
     206      69       1      0.5242     24.1370     23.5160     94.4560
     207      69       1      0.5242     23.6630     21.9850     94.4500
     208      70       2     -1.0484     17.5070     18.1700     97.0060
     209      70       1      0.5242     18.2260     18.0060     96.2950
     210      70       1      0.5242     17.0300     17.2970     97.0820
     211      71       2     -1.0484      1.7470      5.4690     86.5790
     212      71       1      0.5242      1.4260      4.5680     86.3390
     213      71       1      0.5242      2.5050      5.5850     85.9900
     214      72       2     -1.0484      6.3560      6.3880     92.0460
     215      72       1      0.5242      6.8840      7.0640     92.4610
     216      72       1      0.5242      6.5920      5.6220     92.5370
     217      73       2     -1.0484     11.7040      7.7210     91.8830
     218      73       1      0.5242     11.9010      7.9120     92.8360
     219      73       1      0.5242     11.1270      6.9720     91.9980
     220      74       2     -1.0484     27.8970     13.0940     76.6790
     221      74       1      0.5242     27.5140     12.2800     76.3040
     222      74       1      0.5242     28.8750     12.9270     76.5530
     223      75       2     -1.0484     12.7630     20.6140     85.9580
     224      75       1      0.5242     13.2790     21.4050     85.8660
     225      75       1      0.5242     13.4350     19.9050     85.9010
     226      76       2     -1.0484      8.0270      3.2240     89.4110
     227      76       1      0.5242      7.1850      3.8010     89.5350
     228      76       1      0.5242      7.6920      2.4030     89.7420
     229      77       2     -1.0484     18.8120      6.7710     81.8760
     230      77       1      0.5242     18.2200      7.3160     81.3800
     231      77       1      0.5242     18.5510      5.8690     81.6690
     232      78       2     -1.0484      5.0280      8.6990     88.7760
     233      78       1      0.5242      5.5770      8.1930     88.1380
     234      78       1      0.5242      4.1710      8.3200     88.5440
     235      79       2     -1.0484     23.1330      3.8860     95.8430
     236      79       1      0.5242     23.9290      3.5960     96.2620
     237      79       1      0.5242     22.4860      3.8280     96.5610
     238      80       2     -1.0484     13.4930     10.4510     78.2150
     239      80       1      0.5242     13.9080     10.8400     78.9870
     240      80       1      0.5242     13.9820      9.6410     78.0390
     241      81       2     -1.0484     12.1770     10.6100     83.9280
     242      81       1      0.5242     11.4430     11.1720     84.0530
     243      81       1      0.5242     11.8660      9.7880     84.2980
     244      82       2     -1.0484      2.8380      4.2060     91.3980
     245      82       1      0.5242      3.2010      5.0810     91.5450
     246      82       1      0.5242      3.1170      3.9990     90.4220
     247      83       2     -1.0484     17.1330     13.5930     92.9080
     248      83       1      0.5242     16.3520     13.7690     92.3910
     249      83       1      0.5242     16.8870     12.8760     93.5110
     250      84       2     -1.0484      2.8990     12.6240     93.8930
     251      84       1      0.5242      2.1390     12.6780     93.3050
     252      84       1      0.5242      3.2580     13.5350     93.8550
     253      85       2     -1.0484     10.2200     14.9040     93.3400
     254      85       1      0.5242     11.0620     15.1980     93.7380
     255      85       1      0.5242     10.3940     13.9990     93.1020
     256      86       2     -1.0484      4.4580     10.8680     98.4190
     257      86       1      0.5242      5.3980     11.0160     98.6540
     258      86       1      0.5242      4.4480     11.1890     97.4950
     259      87       2     -1.0484     19.4410     17.1340     79.8400
     260      87       1      0.5242     19.6100     17.4880     78.9680
     261      87       1      0.5242     20.1130     16.4070     79.9610
     262      88       2     -1.0484     16.4300      4.2740     83.4070
     263      88       1      0.5242     16.4580      3.7410     84.1570
     264      88       1      0.5242     16.9330      3.7400     82.7700
     265      89       2     -1.0484     14.1340      5.5350     82.5590
     266      89       1      0.5242     13.4340      4.9320     82.9380
     267      89       1      0.5242     14.9590      5.1620     82.9650
     268      90       2     -1.0484     17.3210     20.4950     91.8700
     269      90       1      0.5242     17.9600     20.1590     91.1920
     270      90       1      0.5242     17.8540     21.1320     92.3880
     271      91       2     -1.0484     11.2950     15.0660     90.3200
     272      91       1      0.5242     11.5920     15.0670     91.2260
     273      91       1      0.5242     10.3220     15.2260     90.3500
     274      92       2     -1.0484     17.0080     18.7970     87.4100
     275      92       1      0.5242     17.6950     18.7020     86.6840
     276      92       1      0.5242     16.1860     18.5210     86.9420
     277      93       2     -1.0484     16.3980      2.5520     94.2460
     278      93       1      0.5242     17.0160      2.9510     93.5660
     279      93       1      0.5242     15.5740      3.0110     94.1090
     280      94       2     -1.0484      8.8300     20.7510     77.9950
     281      94       1      0.5242      8.2570     20.8700     77.2470
     282      94       1      0.5242      9.3290     19.9230     77.8850
     283      95       2     -1.0484     14.6630     27.4320     82.5290
     284      95       1      0.5242     14.8510     27.2610     83.4820
     285      95       1      0.5242     14.3550     28.3750     82.5320
     286      96       2     -1.0484     16.0270     12.2490     85.8060
     287      96       1      0.5242     16.6360     11.9530     85.1040
     288      96       1      0.5242     15.9290     13.1940     85.5450
     289      97       2     -1.0484     11.2740     12.4480     96.9590
     290      97       1      0.5242     11.8930     12.0730     97.6540
     291      97       1      0.5242     11.3440     11.8910     96.2380
     292      98       2     -1.0484     12.4730      7.0750     97.7020
     293      98       1      0.5242     13.0460      6.6670     98.4310
     294      98       1      0.5242     11.5540      6.9390     98.1000
     295      99       2     -1.0484     14.9120     27.4620     78.2860
     296      99       1      0.5242     14.6670     28.3880     78.5390
     297      99       1      0.5242     14.4880     26.9160     79.0000
     298     100       2     -1.0484     22.0080      4.2700     91.1730
     299     100       1      0.5242     21.3900      5.0360     91.0840
     300     100       1      0.5242     22.7680      4.5920     90.7490
     301     101       2     -1.0484      7.8000     17.6590     93.1840
     302     101       1      0.5242      8.1430     17.6490     92.3270
     303     101       1      0.5242      8.1090     18.5020     93.5680
     304     102       2     -1.0484     15.6030     19.1100     79.2130
     305     102       1      0.5242     15.2750     18.6550     79.9630
     306     102       1      0.5242     14.8420     19.6060     78.8780
     307     103       2     -1.0484      5.7530     21.1390     81.4750
     308     103       1      0.5242      5.7690     22.0530     81.8460
     309     103       1      0.5242      6.6630     21.0310     81.2010
     310     104       2     -1.0484      2.6150     18.3550     90.3550
     311     104       1      0.5242      2.2250     17.4800     90.4200
     312     104       1      0.5242      1.8590     18.9840     90.0510
     313     105       2     -1.0484     12.0870     16.7870     96.1500
     314     105       1      0.5242     12.2210     15.8770     95.6980
     315     105       1      0.5242     12.9360     16.9400     96.5910
     316     106       2     -1.0484     10.7840     19.0600     92.4390
     317     106       1      0.5242     11.5760     19.1660     91.9220
     318     106       1      0.5242     10.9410     19.5840     93.2340
     319     107       2     -1.0484      3.3690     20.6200     86.8380
     320     107       1      0.5242      3.0510     20.4250     87.7010
     321     107       1      0.5242      4.3470     20.7170     86.9230
     322     108       2     -1.0484     16.1580     16.2180     77.4530
     323     108       1      0.5242     16.2860     17.1230     77.1600
     324     108       1      0.5242     15.1750     16.2190     77.5870
     325     109       2     -1.0484      8.9290     10.6010     80.3220
     326     109       1      0.5242      8.3640     11.3400     79.9120
     327     109       1      0.5242      8.3180     10.0110     80.8200
     328     110       2     -1.0484     11.2090     27.9350     77.9730
     329     110       1      0.5242     10.3970     28.2880     77.5200
     330     110       1      0.5242     11.5230     28.6720     78.6240
     331     111       2     -1.0484      8.1250     27.0080     92.2050
     332     111       1      0.5242      8.3050     27.9120     91.9940
     333     111       1      0.5242      7.2850     26.8890     91.7340
     334     112       2     -1.0484     12.5850     24.1210     95.4550
     335     112       1      0.5242     13.4130     24.2050     95.9820
     336     112       1      0.5242     11.8160     24.2660     96.0950
     337     113       2     -1.0484     14.7550     26.7940     85.5200
     338     113       1      0.5242     13.8260     26.6690     85.7670
     339     113       1      0.5242     15.1480     26.7510     86.3740
     340     114       2     -1.0484      7.7030     27.5930     80.8480
     341     114       1      0.5242      8.4070     28.2070     80.7610
     342     114       1      0.5242      7.7160     27.0680     80.0130
     343     115       2     -1.0484     22.3710     18.8850     81.8750
     344     115       1      0.5242     21.7310     18.1900     82.2010
     345     115       1      0.5242     23.1570     18.7710     82.3790
     346     116       2     -1.0484     22.0520     15.4900     80.2920
     347     116       1      0.5242     21.6640     15.0250     81.0090
     348     116       1      0.5242     22.7910     16.0060     80.7470
     349     117       2     -1.0484      4.3200      2.4390     79.6930
     350     117       1      0.5242      4.0180      2.2630     78.7950
     351     117       1      0.5242      5.2180      2.7370     79.5330
     352     118       2     -1.0484     17.0960      9.4050     86.6280
     353     118       1      0.5242     17.0850     10.3900     86.7150
     354     118       1      0.5242     17.0770      9.3480     85.6210
     355     119       2     -1.0484      9.3780     23.8360     90.0740
     356     119       1      0.5242     10.1270     24.0850     89.4780
     357     119       1      0.5242      8.8060     24.6520     90.1120
     358     120       2     -1.0484     19.4790      4.0890     77.3780
     359     120       1      0.5242     18.5360      4.2080     77.5740
     360     120       1      0.5242     19.6020      3.1400     77.1970
     361     121       2     -1.0484     16.5290      6.9820     84.5190
     362     121       1      0.5242     17.3980      6.6320     84.8120
     363     121       1      0.5242     16.2230      6.3330     83.8670
     364     122       2     -1.0484      5.5390      3.6050     84.2950
     365     122       1      0.5242      6.4600      3.7020     84.1230
     366     122       1      0.5242      5.4340      2.6160     84.3630
     367     123       2     -1.0484     21.0280      8.0800     85.0220
     368     123       1      0.5242     21.6750      8.7150     85.0820
     369     123       1      0.5242     20.3850      8.5730     84.5270
     370     124       2     -1.0484     23.0100     12.0280     94.4470
     371     124       1      0.5242     23.7190     12.0610     93.7010
     372     124       1      0.5242     23.5900     12.1400     95.2200
     373     125       2     -1.0484     19.3500      7.9780     93.6150
     374     125       1      0.5242     19.4150      8.2910     92.7020
     375     125       1      0.5242     18.3980      8.1590     93.7840
     376     126       2     -1.0484      9.8830     22.5810     81.7600
     377     126       1      0.5242      9.7050     23.2320     82.4460
     378     126       1      0.5242     10.3570     23.0080     81.0770
     379     127       2     -1.0484     20.3990     13.3640     77.9800
     380     127       1      0.5242     20.7150     12.4990     77.5980
     381     127       1      0.5242     20.0910     13.0590     78.8460
     382     128       2     -1.0484     25.1650      7.8190     81.7750
     383     128       1      0.5242     24.8670      7.6100     80.8730
     384     128       1      0.5242     24.3620      8.1770     82.2510
     385     129       2     -1.0484     13.7930     14.3640     88.1680
     386     129       1      0.5242     13.7870     14.5480     87.2230
     387     129       1      0.5242     12.9950     14.7940     88.3990
     388     130       2     -1.0484      7.6670      8.5470     85.6460
     389     130       1      0.5242      7.1030      7.9750     86.2960
     390     130       1      0.5242      8.5580      8.2920     86.0460
     391     131       2     -1.0484      1.1820     24.4030     97.3610
     392     131       1      0.5242      1.3010     24.5850     98.3460
     393     131       1      0.5242      2.0010     23.8670     97.2200
     394     132       2     -1.0484     11.1290     18.4850     82.5500
     395     132       1      0.5242     10.2310     18.4670     82.9200
     396     132       1      0.5242     11.1080     17.7020     81.9850
     397     133       2     -1.0484     23.4120      8.6060     88.6650
     398     133       1      0.5242     22.8520      8.9800     89.3880
     399     133       1      0.5242     22.9580      7.7690     88.4930
     400     134       2     -1.0484      5.6540      6.7170     81.0230
     401     134       1      0.5242      6.0590      6.1260     80.3950
     402     134       1      0.5242      6.4090      6.7850     81.6340
     403     135       2     -1.0484     13.3360     15.9050     85.3500
     404     135       1      0.5242     12.8490     16.5880     84.8830
     405     135       1      0.5242     12.5680     15.3750     85.7700
     406     136       2     -1.0484      6.4880     15.2550     89.2120
     407     136       1      0.5242      7.2790     15.1260     89.7090