LAMMPS data file. CGCMM style. atom_style full generated by VMD/TopoTools v1.1 on Tue Jul 24 09:42:34 +0800 2012
 3773 atoms
 2462 bonds
 1231 angles
 0 dihedrals
 0 impropers
 4 atom types
 1 bond types
 1 angle types
 0 dihedral types
 0 improper types
 0.671500 29.171500  xlo xhi
 0.852000 29.452000  ylo yhi
 76.536503 129.636501  zlo zhi

# Pair Coeffs
#
# 1  CLA
# 2  HT
# 3  OT
# 4  SOD

# Bond Coeffs
#
# 1  

# Angle Coeffs
#
# 1  unknown

 Masses

 1 35.452999 # CLA
 2 1.007940 # HT
 3 15.999400 # OT
 4 22.989771 # SOD

 Atoms

1 1 3 -0.834000 4.168000 10.582000 92.403999 # OT TIP3
2 1 2 0.417000 3.724000 10.951000 91.600998 # HT TIP3
3 1 2 0.417000 3.592000 10.879000 93.126999 # HT TIP3
4 2 3 -0.834000 6.533000 5.376000 97.390999 # OT TIP3
5 2 2 0.417000 6.578000 5.724000 98.297997 # HT TIP3
6 2 2 0.417000 7.092000 4.588000 97.460999 # HT TIP3
7 3 3 -0.834000 5.069000 4.460000 106.387001 # OT TIP3
8 3 2 0.417000 4.459000 3.660000 106.480003 # HT TIP3
9 3 2 0.417000 4.495000 5.155000 105.921997 # HT TIP3
10 4 3 -0.834000 1.475000 14.507000 115.067001 # OT TIP3
11 4 2 0.417000 1.637000 13.763000 114.466003 # HT TIP3
12 4 2 0.417000 1.119000 14.039000 115.860001 # HT TIP3
13 5 3 -0.834000 6.887000 0.874000 127.356003 # OT TIP3
14 5 2 0.417000 6.806000 0.600000 126.424004 # HT TIP3
15 5 2 0.417000 7.656000 1.526000 127.274002 # HT TIP3
16 6 3 -0.834000 1.424000 4.749000 126.731003 # OT TIP3
17 6 2 0.417000 1.853000 4.214000 127.490997 # HT TIP3
18 6 2 0.417000 1.160000 5.586000 127.217003 # HT TIP3
19 7 3 -0.834000 5.686000 17.195999 88.571999 # OT TIP3
20 7 2 0.417000 6.583000 17.479000 88.316002 # HT TIP3
21 7 2 0.417000 5.837000 16.332001 88.989998 # HT TIP3
22 8 3 -0.834000 14.937000 6.294000 107.056000 # OT TIP3
23 8 2 0.417000 14.024000 5.819000 107.031998 # HT TIP3
24 8 2 0.417000 15.484000 5.613000 107.473000 # HT TIP3
25 9 3 -0.834000 8.824000 14.311000 97.832001 # OT TIP3
26 9 2 0.417000 9.133000 13.848000 98.612000 # HT TIP3
27 9 2 0.417000 9.006000 13.616000 97.144997 # HT TIP3
28 10 3 -0.834000 11.962000 26.525999 107.873001 # OT TIP3
29 10 2 0.417000 11.886000 27.195000 108.575996 # HT TIP3
30 10 2 0.417000 11.119000 26.580000 107.435997 # HT TIP3
31 11 3 -0.834000 8.937000 2.669000 128.151001 # OT TIP3
32 11 2 0.417000 9.539000 2.900000 127.392998 # HT TIP3
33 11 2 0.417000 8.771000 3.412000 128.643997 # HT TIP3
34 12 3 -0.834000 4.286000 16.818001 77.809998 # OT TIP3
35 12 2 0.417000 4.281000 15.888000 77.695999 # HT TIP3
36 12 2 0.417000 5.028000 17.080000 77.280998 # HT TIP3
37 13 3 -0.834000 6.705000 7.491000 94.942001 # OT TIP3
38 13 2 0.417000 7.282000 7.847000 95.652000 # HT TIP3
39 13 2 0.417000 5.809000 7.562000 95.300003 # HT TIP3
40 14 3 -0.834000 16.625999 15.201000 81.077003 # OT TIP3
41 14 2 0.417000 16.570000 14.772000 80.225998 # HT TIP3
42 14 2 0.417000 17.305000 15.954000 80.945000 # HT TIP3
43 15 3 -0.834000 3.250000 9.344000 86.128998 # OT TIP3
44 15 2 0.417000 2.610000 8.790000 86.498001 # HT TIP3
45 15 2 0.417000 2.664000 9.745000 85.461998 # HT TIP3
46 16 3 -0.834000 4.435000 16.695000 98.609001 # OT TIP3
47 16 2 0.417000 5.370000 16.534000 98.485001 # HT TIP3
48 16 2 0.417000 4.155000 15.867000 99.081001 # HT TIP3
49 17 3 -0.834000 3.491000 11.662000 104.360001 # OT TIP3
50 17 2 0.417000 4.094000 11.468000 103.628998 # HT TIP3
51 17 2 0.417000 2.914000 12.275000 103.930000 # HT TIP3
52 18 3 -0.834000 4.740000 7.537000 103.581001 # OT TIP3
53 18 2 0.417000 5.156000 8.331000 103.157997 # HT TIP3
54 18 2 0.417000 4.286000 7.928000 104.311996 # HT TIP3
55 19 3 -0.834000 7.672000 7.499000 115.081001 # OT TIP3
56 19 2 0.417000 7.540000 8.050000 115.827003 # HT TIP3
57 19 2 0.417000 6.744000 7.256000 114.763000 # HT TIP3
58 20 3 -0.834000 11.174000 9.409000 81.486000 # OT TIP3
59 20 2 0.417000 11.498000 9.371000 82.431999 # HT TIP3
60 20 2 0.417000 10.248000 9.770000 81.574997 # HT TIP3
61 21 3 -0.834000 0.502000 6.167000 91.091003 # OT TIP3
62 21 2 0.417000 0.983000 6.490000 90.330002 # HT TIP3
63 21 2 0.417000 1.108000 6.281000 91.847000 # HT TIP3
64 22 3 -0.834000 10.382000 9.656000 91.416000 # OT TIP3
65 22 2 0.417000 10.074000 10.253000 92.097000 # HT TIP3
66 22 2 0.417000 10.521000 8.764000 91.789001 # HT TIP3
67 23 3 -0.834000 8.464000 6.607000 105.953003 # OT TIP3
68 23 2 0.417000 8.742000 5.706000 106.098999 # HT TIP3
69 23 2 0.417000 8.922000 7.045000 106.737000 # HT TIP3
70 24 3 -0.834000 24.677000 14.771000 114.625999 # OT TIP3
71 24 2 0.417000 24.034000 14.442000 113.959000 # HT TIP3
72 24 2 0.417000 25.562000 14.582000 114.181999 # HT TIP3
73 25 3 -0.834000 6.816000 5.788000 103.995003 # OT TIP3
74 25 2 0.417000 7.140000 6.131000 104.862999 # HT TIP3
75 25 2 0.417000 6.063000 6.352000 103.779999 # HT TIP3
76 26 3 -0.834000 2.161000 7.181000 78.443001 # OT TIP3
77 26 2 0.417000 2.443000 6.239000 78.481003 # HT TIP3
78 26 2 0.417000 1.278000 7.099000 77.983002 # HT TIP3
79 27 3 -0.834000 5.321000 21.103001 87.738998 # OT TIP3
80 27 2 0.417000 5.966000 21.282000 88.462997 # HT TIP3
81 27 2 0.417000 5.884000 21.414000 86.956001 # HT TIP3
82 28 3 -0.834000 15.522000 21.355000 89.331001 # OT TIP3
83 28 2 0.417000 14.722000 21.309000 89.792000 # HT TIP3
84 28 2 0.417000 15.173000 21.556999 88.417999 # HT TIP3
85 29 3 -0.834000 1.839000 4.282000 99.314003 # OT TIP3
86 29 2 0.417000 1.339000 3.925000 98.586998 # HT TIP3
87 29 2 0.417000 2.275000 3.577000 99.638000 # HT TIP3
88 30 3 -0.834000 0.985000 15.637000 98.975998 # OT TIP3
89 30 2 0.417000 1.144000 15.925000 99.848999 # HT TIP3
90 30 2 0.417000 0.812000 16.461000 98.474998 # HT TIP3
91 31 3 -0.834000 13.643000 14.295000 109.978996 # OT TIP3
92 31 2 0.417000 13.431000 14.053000 110.856003 # HT TIP3
93 31 2 0.417000 14.023000 15.162000 110.018997 # HT TIP3
94 32 3 -0.834000 12.921000 21.094999 107.843002 # OT TIP3
95 32 2 0.417000 12.830000 21.121000 108.803001 # HT TIP3
96 32 2 0.417000 12.781000 22.025999 107.563004 # HT TIP3
97 33 3 -0.834000 10.455000 18.132999 117.707001 # OT TIP3
98 33 2 0.417000 9.541000 18.361000 117.866997 # HT TIP3
99 33 2 0.417000 10.705000 17.462999 118.447998 # HT TIP3
100 34 3 -0.834000 6.108000 24.417999 89.459000 # OT TIP3
101 34 2 0.417000 5.340000 24.122000 89.044998 # HT TIP3
102 34 2 0.417000 6.537000 24.836000 88.708000 # HT TIP3
103 35 3 -0.834000 10.926000 8.104000 78.903999 # OT TIP3
104 35 2 0.417000 11.261000 8.901000 78.494003 # HT TIP3
105 35 2 0.417000 10.748000 8.389000 79.807999 # HT TIP3
106 36 3 -0.834000 9.069000 26.184000 88.710999 # OT TIP3
107 36 2 0.417000 9.623000 26.042000 89.514999 # HT TIP3
108 36 2 0.417000 9.305000 27.094999 88.427002 # HT TIP3
109 37 3 -0.834000 4.769000 23.252001 92.764999 # OT TIP3
110 37 2 0.417000 4.649000 24.180000 92.388000 # HT TIP3
111 37 2 0.417000 5.561000 23.296000 93.276001 # HT TIP3
112 38 3 -0.834000 4.099000 14.189000 100.083000 # OT TIP3
113 38 2 0.417000 3.930000 13.376000 100.561996 # HT TIP3
114 38 2 0.417000 5.061000 14.269000 100.161003 # HT TIP3
115 39 3 -0.834000 20.452000 2.461000 102.664001 # OT TIP3
116 39 2 0.417000 20.914000 1.579000 102.579002 # HT TIP3
117 39 2 0.417000 21.167000 3.153000 102.513000 # HT TIP3
118 40 3 -0.834000 24.017000 11.539000 119.283997 # OT TIP3
119 40 2 0.417000 23.187000 11.072000 119.393997 # HT TIP3
120 40 2 0.417000 24.510000 11.006000 119.861000 # HT TIP3
121 41 3 -0.834000 23.072001 6.742000 79.977997 # OT TIP3
122 41 2 0.417000 22.205000 6.345000 80.330002 # HT TIP3
123 41 2 0.417000 23.451000 6.159000 79.358002 # HT TIP3
124 42 3 -0.834000 11.426000 5.865000 77.517998 # OT TIP3
125 42 2 0.417000 11.638000 5.269000 78.253998 # HT TIP3
126 42 2 0.417000 11.157000 6.712000 77.992996 # HT TIP3
127 43 3 -0.834000 9.147000 4.814000 95.778000 # OT TIP3
128 43 2 0.417000 8.464000 4.111000 95.825996 # HT TIP3
129 43 2 0.417000 8.543000 5.564000 95.653000 # HT TIP3
130 44 3 -0.834000 8.881000 17.819000 99.775002 # OT TIP3
131 44 2 0.417000 8.016000 17.840000 100.195000 # HT TIP3
132 44 2 0.417000 8.931000 18.763000 99.509003 # HT TIP3
133 45 3 -0.834000 4.842000 11.888000 101.771004 # OT TIP3
134 45 2 0.417000 5.342000 11.197000 102.178001 # HT TIP3
135 45 2 0.417000 5.403000 12.648000 102.078003 # HT TIP3
136 46 3 -0.834000 2.170000 16.174999 105.666000 # OT TIP3
137 46 2 0.417000 2.620000 16.450001 106.473999 # HT TIP3
138 46 2 0.417000 1.263000 16.017000 105.968002 # HT TIP3
139 47 3 -0.834000 1.302000 25.584000 82.023003 # OT TIP3
140 47 2 0.417000 1.079000 26.565001 82.004997 # HT TIP3
141 47 2 0.417000 2.295000 25.663000 81.945000 # HT TIP3
142 48 3 -0.834000 4.799000 18.274000 83.668999 # OT TIP3
143 48 2 0.417000 3.803000 18.302999 83.821999 # HT TIP3
144 48 2 0.417000 5.033000 19.254999 83.424004 # HT TIP3
145 49 3 -0.834000 9.392000 13.477000 81.820999 # OT TIP3
146 49 2 0.417000 8.619000 12.978000 81.943001 # HT TIP3
147 49 2 0.417000 9.842000 13.057000 81.036003 # HT TIP3
148 50 3 -0.834000 3.208000 21.469000 101.003998 # OT TIP3
149 50 2 0.417000 3.089000 21.445000 100.056000 # HT TIP3
150 50 2 0.417000 3.623000 22.334999 101.049004 # HT TIP3
151 51 3 -0.834000 2.928000 13.231000 106.987000 # OT TIP3
152 51 2 0.417000 3.219000 12.573000 106.330002 # HT TIP3
153 51 2 0.417000 3.082000 14.042000 106.508003 # HT TIP3
154 52 3 -0.834000 14.273000 18.096001 123.613998 # OT TIP3
155 52 2 0.417000 13.329000 18.224001 123.723999 # HT TIP3
156 52 2 0.417000 14.543000 17.648001 124.474998 # HT TIP3
157 53 3 -0.834000 2.674000 18.968000 78.711998 # OT TIP3
158 53 2 0.417000 3.132000 18.128000 78.703003 # HT TIP3
159 53 2 0.417000 3.431000 19.620001 78.780998 # HT TIP3
160 54 3 -0.834000 5.548000 9.546000 113.078003 # OT TIP3
161 54 2 0.417000 5.564000 10.389000 113.558998 # HT TIP3
162 54 2 0.417000 5.122000 9.724000 112.242996 # HT TIP3
163 55 3 -0.834000 12.890000 27.806999 113.860001 # OT TIP3
164 55 2 0.417000 12.345000 28.613001 113.792999 # HT TIP3
165 55 2 0.417000 12.545000 27.420000 114.675003 # HT TIP3
166 56 3 -0.834000 19.370001 21.959999 105.471001 # OT TIP3
167 56 2 0.417000 18.403000 21.788000 105.221001 # HT TIP3
168 56 2 0.417000 19.573999 21.191000 106.091003 # HT TIP3
169 57 3 -0.834000 2.629000 21.940001 122.120003 # OT TIP3
170 57 2 0.417000 3.029000 22.783001 122.411003 # HT TIP3
171 57 2 0.417000 1.890000 21.909000 122.734001 # HT TIP3
172 58 3 -0.834000 12.765000 22.385000 128.386002 # OT TIP3
173 58 2 0.417000 13.153000 21.627001 127.869003 # HT TIP3
174 58 2 0.417000 13.464000 23.047001 128.365005 # HT TIP3
175 59 3 -0.834000 14.112000 18.180000 95.122002 # OT TIP3
176 59 2 0.417000 14.244000 17.914000 96.008003 # HT TIP3
177 59 2 0.417000 15.026000 18.330999 94.847000 # HT TIP3
178 60 3 -0.834000 1.787000 24.632000 100.237000 # OT TIP3
179 60 2 0.417000 1.735000 24.424000 101.231003 # HT TIP3
180 60 2 0.417000 2.588000 25.209000 100.139000 # HT TIP3
181 61 3 -0.834000 6.865000 3.174000 104.558998 # OT TIP3
182 61 2 0.417000 6.299000 3.937000 104.348999 # HT TIP3
183 61 2 0.417000 7.675000 3.555000 104.903000 # HT TIP3
184 62 3 -0.834000 9.839000 7.238000 108.401001 # OT TIP3
185 62 2 0.417000 9.404000 7.736000 109.134003 # HT TIP3
186 62 2 0.417000 9.904000 6.338000 108.722000 # HT TIP3
187 63 3 -0.834000 15.914000 7.069000 79.000999 # OT TIP3
188 63 2 0.417000 16.724001 7.358000 78.627998 # HT TIP3
189 63 2 0.417000 15.308000 7.200000 78.170998 # HT TIP3
190 64 3 -0.834000 8.071000 4.298000 110.595001 # OT TIP3
191 64 2 0.417000 7.466000 4.904000 109.994003 # HT TIP3
192 64 2 0.417000 7.946000 4.595000 111.528000 # HT TIP3
193 65 3 -0.834000 12.296000 26.622000 126.788002 # OT TIP3
194 65 2 0.417000 12.363000 26.791000 125.862999 # HT TIP3
195 65 2 0.417000 11.519000 26.007000 126.834000 # HT TIP3
196 66 3 -0.834000 10.435000 13.376000 86.691002 # OT TIP3
197 66 2 0.417000 10.209000 12.598000 86.134003 # HT TIP3
198 66 2 0.417000 9.972000 13.266000 87.517998 # HT TIP3
199 67 3 -0.834000 7.560000 2.574000 96.330002 # OT TIP3
200 67 2 0.417000 8.150000 2.119000 97.028000 # HT TIP3
201 67 2 0.417000 6.648000 2.296000 96.535004 # HT TIP3
202 68 3 -0.834000 11.395000 19.825001 115.564003 # OT TIP3
203 68 2 0.417000 10.867000 19.268000 116.168999 # HT TIP3
204 68 2 0.417000 12.286000 19.458000 115.728996 # HT TIP3
205 69 3 -0.834000 10.457000 15.280000 125.233002 # OT TIP3
206 69 2 0.417000 10.558000 14.675000 124.472000 # HT TIP3
207 69 2 0.417000 9.607000 15.696000 125.017998 # HT TIP3
208 70 3 -0.834000 14.391000 2.419000 79.491997 # OT TIP3
209 70 2 0.417000 14.698000 3.181000 79.921997 # HT TIP3
210 70 2 0.417000 13.712000 2.077000 80.078003 # HT TIP3
211 71 3 -0.834000 9.323000 11.081000 85.327003 # OT TIP3
212 71 2 0.417000 8.683000 11.253000 84.648003 # HT TIP3
213 71 2 0.417000 8.889000 10.561000 86.033997 # HT TIP3
214 72 3 -0.834000 9.578000 12.467000 89.234001 # OT TIP3
215 72 2 0.417000 8.728000 12.061000 89.492996 # HT TIP3
216 72 2 0.417000 10.012000 12.694000 90.059998 # HT TIP3
217 73 3 -0.834000 8.869000 17.658001 124.935997 # OT TIP3
218 73 2 0.417000 8.483000 17.521000 124.074997 # HT TIP3
219 73 2 0.417000 8.264000 18.388000 125.285004 # HT TIP3
220 74 3 -0.834000 10.782000 1.140000 78.553001 # OT TIP3
221 74 2 0.417000 10.867000 1.459000 79.515999 # HT TIP3
222 74 2 0.417000 10.243000 1.823000 78.167000 # HT TIP3
223 75 3 -0.834000 5.118000 8.625000 84.277000 # OT TIP3
224 75 2 0.417000 5.905000 8.419000 84.814003 # HT TIP3
225 75 2 0.417000 4.502000 8.958000 84.921997 # HT TIP3
226 76 3 -0.834000 3.903000 5.187000 86.315002 # OT TIP3
227 76 2 0.417000 3.609000 5.772000 85.597000 # HT TIP3
228 76 2 0.417000 4.317000 4.473000 85.827003 # HT TIP3
229 77 3 -0.834000 3.776000 7.965000 95.824997 # OT TIP3
230 77 2 0.417000 3.272000 7.491000 96.463997 # HT TIP3
231 77 2 0.417000 4.104000 8.788000 96.252998 # HT TIP3
232 78 3 -0.834000 3.391000 5.544000 109.112999 # OT TIP3
233 78 2 0.417000 2.760000 5.020000 109.650002 # HT TIP3
234 78 2 0.417000 2.803000 6.010000 108.519997 # HT TIP3
235 79 3 -0.834000 2.340000 8.765000 105.162003 # OT TIP3
236 79 2 0.417000 2.180000 8.544000 104.247002 # HT TIP3
237 79 2 0.417000 2.334000 9.711000 105.233002 # HT TIP3
238 80 3 -0.834000 10.200000 13.593000 122.944000 # OT TIP3
239 80 2 0.417000 11.012000 13.655000 122.512001 # HT TIP3
240 80 2 0.417000 10.281000 12.693000 123.254997 # HT TIP3
241 81 3 -0.834000 1.237000 18.402000 113.589996 # OT TIP3
242 81 2 0.417000 0.959000 19.292000 113.851997 # HT TIP3
243 81 2 0.417000 1.366000 18.448999 112.647003 # HT TIP3
244 82 3 -0.834000 10.427000 4.685000 109.305000 # OT TIP3
245 82 2 0.417000 9.556000 4.435000 109.702003 # HT TIP3
246 82 2 0.417000 10.860000 3.825000 109.165001 # HT TIP3
247 83 3 -0.834000 21.264999 16.718000 124.872002 # OT TIP3
248 83 2 0.417000 21.322001 16.658001 123.889999 # HT TIP3
249 83 2 0.417000 22.094999 16.357000 125.198997 # HT TIP3
250 84 3 -0.834000 3.619000 10.825000 89.657997 # OT TIP3
251 84 2 0.417000 4.098000 11.400000 89.012001 # HT TIP3
252 84 2 0.417000 3.940000 9.930000 89.461998 # HT TIP3
253 85 3 -0.834000 2.878000 6.306000 92.752998 # OT TIP3
254 85 2 0.417000 2.657000 6.661000 93.598999 # HT TIP3
255 85 2 0.417000 3.801000 6.532000 92.625999 # HT TIP3
256 86 3 -0.834000 6.882000 22.771000 78.819000 # OT TIP3
257 86 2 0.417000 6.050000 22.535000 78.347000 # HT TIP3
258 86 2 0.417000 7.359000 21.972000 78.692001 # HT TIP3
259 87 3 -0.834000 4.517000 4.405000 95.917999 # OT TIP3
260 87 2 0.417000 3.642000 4.542000 95.632004 # HT TIP3
261 87 2 0.417000 5.082000 5.227000 95.794998 # HT TIP3
262 88 3 -0.834000 2.844000 20.972000 98.130997 # OT TIP3
263 88 2 0.417000 3.432000 21.320999 97.445000 # HT TIP3
264 88 2 0.417000 1.967000 21.048000 97.638000 # HT TIP3
265 89 3 -0.834000 21.113001 14.116000 87.566002 # OT TIP3
266 89 2 0.417000 21.239000 14.459000 86.718002 # HT TIP3
267 89 2 0.417000 20.118999 14.316000 87.750000 # HT TIP3
268 90 3 -0.834000 11.992000 6.048000 111.346001 # OT TIP3
269 90 2 0.417000 11.663000 5.704000 110.540001 # HT TIP3
270 90 2 0.417000 11.886000 6.979000 111.359001 # HT TIP3
271 91 3 -0.834000 2.287000 10.018000 101.014999 # OT TIP3
272 91 2 0.417000 2.632000 10.075000 100.146004 # HT TIP3
273 91 2 0.417000 2.360000 10.906000 101.287003 # HT TIP3
274 92 3 -0.834000 4.627000 2.370000 109.261002 # OT TIP3
275 92 2 0.417000 4.330000 2.772000 108.488998 # HT TIP3
276 92 2 0.417000 5.230000 3.062000 109.598000 # HT TIP3
277 93 3 -0.834000 26.624001 17.094000 93.306999 # OT TIP3
278 93 2 0.417000 27.448000 17.364000 93.744003 # HT TIP3
279 93 2 0.417000 26.636999 17.548000 92.400002 # HT TIP3
280 94 3 -0.834000 6.073000 15.304000 95.589996 # OT TIP3
281 94 2 0.417000 6.459000 15.839000 96.307999 # HT TIP3
282 94 2 0.417000 6.369000 15.913000 94.831001 # HT TIP3
283 95 3 -0.834000 16.783001 7.854000 99.280998 # OT TIP3
284 95 2 0.417000 16.139999 8.558000 98.948997 # HT TIP3
285 95 2 0.417000 16.473000 7.060000 98.878998 # HT TIP3
286 96 3 -0.834000 23.372000 18.941000 93.288002 # OT TIP3
287 96 2 0.417000 22.701000 18.364000 92.878998 # HT TIP3
288 96 2 0.417000 22.834999 19.481001 93.925003 # HT TIP3
289 97 3 -0.834000 10.605000 1.341000 115.611000 # OT TIP3
290 97 2 0.417000 9.988000 1.950000 115.130997 # HT TIP3
291 97 2 0.417000 11.132000 1.918000 116.205002 # HT TIP3
292 98 3 -0.834000 1.242000 21.146999 113.924004 # OT TIP3
293 98 2 0.417000 0.663000 21.702000 113.355003 # HT TIP3
294 98 2 0.417000 2.032000 20.910000 113.336998 # HT TIP3
295 99 3 -0.834000 2.507000 13.754000 125.153000 # OT TIP3
296 99 2 0.417000 2.133000 13.633000 124.252998 # HT TIP3
297 99 2 0.417000 2.582000 14.701000 125.154999 # HT TIP3
298 100 3 -0.834000 5.958000 13.597000 81.088997 # OT TIP3
299 100 2 0.417000 6.173000 13.519000 80.112000 # HT TIP3
300 100 2 0.417000 5.399000 14.394000 81.156998 # HT TIP3
301 101 3 -0.834000 28.349001 10.368000 95.672997 # OT TIP3
302 101 2 0.417000 27.670000 10.220000 96.362999 # HT TIP3
303 101 2 0.417000 27.903000 10.919000 94.988998 # HT TIP3
304 102 3 -0.834000 5.052000 1.870000 96.830002 # OT TIP3
305 102 2 0.417000 4.774000 2.694000 96.453003 # HT TIP3
306 102 2 0.417000 4.735000 1.301000 96.070999 # HT TIP3
307 103 3 -0.834000 5.094000 25.766001 91.699997 # OT TIP3
308 103 2 0.417000 4.138000 26.000000 91.695999 # HT TIP3
309 103 2 0.417000 5.258000 25.396999 90.811996 # HT TIP3
310 104 3 -0.834000 11.466000 0.987000 104.164001 # OT TIP3
311 104 2 0.417000 11.335000 1.923000 103.974998 # HT TIP3
312 104 2 0.417000 11.058000 0.592000 103.383003 # HT TIP3
313 105 3 -0.834000 7.080000 13.492000 106.191002 # OT TIP3
314 105 2 0.417000 6.930000 14.386000 106.472000 # HT TIP3
315 105 2 0.417000 6.929000 12.999000 106.981003 # HT TIP3
316 106 3 -0.834000 1.988000 8.254000 108.337997 # OT TIP3
317 106 2 0.417000 1.278000 8.823000 108.695000 # HT TIP3
318 106 2 0.417000 2.043000 8.543000 107.420998 # HT TIP3
319 107 3 -0.834000 3.848000 27.587000 120.869003 # OT TIP3
320 107 2 0.417000 4.347000 27.754999 121.724998 # HT TIP3
321 107 2 0.417000 3.313000 26.834999 121.161003 # HT TIP3
322 108 3 -0.834000 10.890000 6.886000 95.328003 # OT TIP3
323 108 2 0.417000 11.188000 6.984000 96.231003 # HT TIP3
324 108 2 0.417000 10.344000 6.089000 95.420998 # HT TIP3
325 109 3 -0.834000 2.178000 22.441999 77.535004 # OT TIP3
326 109 2 0.417000 1.772000 21.780001 78.092003 # HT TIP3
327 109 2 0.417000 1.998000 23.309000 77.992996 # HT TIP3
328 110 3 -0.834000 10.130000 22.047001 79.500000 # OT TIP3
329 110 2 0.417000 10.101000 22.971001 79.142998 # HT TIP3
330 110 2 0.417000 9.787000 21.454000 78.811996 # HT TIP3
331 111 3 -0.834000 2.844000 11.071000 79.124001 # OT TIP3
332 111 2 0.417000 2.622000 11.253000 80.053001 # HT TIP3
333 111 2 0.417000 3.447000 10.291000 79.116997 # HT TIP3
334 112 3 -0.834000 3.082000 28.135000 98.563004 # OT TIP3
335 112 2 0.417000 2.326000 27.834000 99.110001 # HT TIP3
336 112 2 0.417000 2.641000 28.372999 97.726997 # HT TIP3
337 113 3 -0.834000 8.623000 8.390000 110.605003 # OT TIP3
338 113 2 0.417000 8.783000 8.039000 111.539001 # HT TIP3
339 113 2 0.417000 9.229000 9.134000 110.500000 # HT TIP3
340 114 3 -0.834000 13.885000 10.269000 105.953003 # OT TIP3
341 114 2 0.417000 14.356000 10.891000 106.561996 # HT TIP3
342 114 2 0.417000 13.099000 10.013000 106.464996 # HT TIP3
343 115 3 -0.834000 5.654000 10.381000 126.596001 # OT TIP3
344 115 2 0.417000 6.520000 10.553000 126.088997 # HT TIP3
345 115 2 0.417000 5.064000 10.743000 125.910004 # HT TIP3
346 116 3 -0.834000 1.323000 24.167999 79.388000 # OT TIP3
347 116 2 0.417000 2.136000 23.816000 79.839996 # HT TIP3
348 116 2 0.417000 0.753000 24.478001 80.139999 # HT TIP3
349 117 3 -0.834000 13.854000 15.258000 125.147003 # OT TIP3
350 117 2 0.417000 14.820000 14.864000 125.186996 # HT TIP3
351 117 2 0.417000 13.330000 14.710000 125.717003 # HT TIP3
352 118 3 -0.834000 16.573000 24.219999 125.415001 # OT TIP3
353 118 2 0.417000 17.226999 23.533001 125.644997 # HT TIP3
354 118 2 0.417000 17.037001 24.870001 124.861000 # HT TIP3
355 119 3 -0.834000 2.583000 28.832001 83.825996 # OT TIP3
356 119 2 0.417000 2.058000 29.014000 84.614998 # HT TIP3
357 119 2 0.417000 1.996000 28.237000 83.310997 # HT TIP3
358 120 3 -0.834000 13.720000 24.993999 89.592003 # OT TIP3
359 120 2 0.417000 13.391000 25.882999 89.787003 # HT TIP3
360 120 2 0.417000 13.556000 24.417999 90.352997 # HT TIP3
361 121 3 -0.834000 1.495000 28.521000 86.514999 # OT TIP3
362 121 2 0.417000 0.513000 28.481001 86.542999 # HT TIP3
363 121 2 0.417000 1.798000 27.618999 86.763000 # HT TIP3
364 122 3 -0.834000 3.210000 6.685000 84.040001 # OT TIP3
365 122 2 0.417000 2.967000 6.736000 83.060997 # HT TIP3
366 122 2 0.417000 3.910000 7.355000 84.080002 # HT TIP3
367 123 3 -0.834000 7.411000 19.958000 93.834999 # OT TIP3
368 123 2 0.417000 8.017000 20.618000 93.457001 # HT TIP3
369 123 2 0.417000 6.815000 19.636000 93.087997 # HT TIP3
370 124 3 -0.834000 13.836000 24.961000 113.285004 # OT TIP3
371 124 2 0.417000 13.739000 25.664000 113.933998 # HT TIP3
372 124 2 0.417000 14.193000 24.212999 113.744003 # HT TIP3
373 125 3 -0.834000 3.334000 15.543000 110.874001 # OT TIP3
374 125 2 0.417000 2.779000 15.307000 111.623001 # HT TIP3
375 125 2 0.417000 4.107000 15.049000 111.002998 # HT TIP3
376 126 3 -0.834000 23.624001 21.129000 122.124001 # OT TIP3
377 126 2 0.417000 22.610001 21.086000 121.871002 # HT TIP3
378 126 2 0.417000 23.795000 20.163000 122.329002 # HT TIP3
379 127 3 -0.834000 5.679000 21.389999 103.887001 # OT TIP3
380 127 2 0.417000 5.118000 22.106001 104.146004 # HT TIP3
381 127 2 0.417000 5.696000 20.711000 104.607002 # HT TIP3
382 128 3 -0.834000 1.929000 22.910999 127.356003 # OT TIP3
383 128 2 0.417000 2.135000 23.827999 127.106003 # HT TIP3
384 128 2 0.417000 2.859000 22.551001 127.525002 # HT TIP3
385 129 3 -0.834000 16.691999 22.903000 80.281998 # OT TIP3
386 129 2 0.417000 16.863001 23.381001 81.122002 # HT TIP3
387 129 2 0.417000 16.927000 23.565001 79.585999 # HT TIP3
388 130 3 -0.834000 14.040000 22.719999 79.248001 # OT TIP3
389 130 2 0.417000 13.465000 22.975000 79.961998 # HT TIP3
390 130 2 0.417000 14.928000 22.903999 79.573997 # HT TIP3
391 131 3 -0.834000 10.025000 29.041000 106.651001 # OT TIP3
392 131 2 0.417000 10.915000 28.917999 106.185997 # HT TIP3
393 131 2 0.417000 9.697000 28.171000 106.738998 # HT TIP3
394 132 3 -0.834000 8.889000 18.665001 107.491997 # OT TIP3
395 132 2 0.417000 8.468000 18.270000 106.709999 # HT TIP3
396 132 2 0.417000 8.917000 17.951000 108.140999 # HT TIP3
397 133 3 -0.834000 10.938000 21.737000 117.509003 # OT TIP3
398 133 2 0.417000 11.346000 21.240000 116.767998 # HT TIP3
399 133 2 0.417000 10.077000 21.980000 117.211998 # HT TIP3
400 134 3 -0.834000 15.826000 27.468000 107.902000 # OT TIP3
401 134 2 0.417000 14.953000 27.236000 107.428001 # HT TIP3
402 134 2 0.417000 15.568000 28.120001 108.532997 # HT TIP3
403 135 3 -0.834000 3.771000 19.474001 119.686996 # OT TIP3
404 135 2 0.417000 3.958000 18.573000 119.487999 # HT TIP3
405 135 2 0.417000 3.820000 19.929001 118.813004 # HT TIP3
406 136 3 -0.834000 8.681000 23.965000 84.137001 # OT TIP3
407 136 2 0.417000 9.507000 24.437000 84.203003 # HT TIP3
408 136 2 0.417000 8.017000 24.617001 83.811996 # HT TIP3
409 137 3 -0.834000 11.429000 15.250000 82.218002 # OT TIP3
410 137 2 0.417000 10.550000 15.041000 81.907997 # HT TIP3
411 137 2 0.417000 11.901000 14.379000 82.217003 # HT TIP3
412 138 3 -0.834000 20.159000 26.052000 93.948997 # OT TIP3
413 138 2 0.417000 20.681999 26.846001 93.999001 # HT TIP3
414 138 2 0.417000 19.233999 26.358000 93.880997 # HT TIP3
415 139 3 -0.834000 2.586000 25.952000 94.694000 # OT TIP3
416 139 2 0.417000 2.674000 26.423000 93.893997 # HT TIP3
417 139 2 0.417000 1.772000 26.368999 95.103996 # HT TIP3
418 140 3 -0.834000 2.183000 26.167000 102.832001 # OT TIP3
419 140 2 0.417000 3.080000 26.407000 102.926003 # HT TIP3
420 140 2 0.417000 1.985000 25.726999 103.625999 # HT TIP3
421 141 3 -0.834000 23.830999 22.118999 94.569000 # OT TIP3
422 141 2 0.417000 23.636999 23.016001 94.956001 # HT TIP3
423 141 2 0.417000 23.163000 21.485001 94.949997 # HT TIP3
424 142 3 -0.834000 15.918000 17.791000 126.069000 # OT TIP3
425 142 2 0.417000 16.584000 17.559000 125.456001 # HT TIP3
426 142 2 0.417000 16.483999 18.322001 126.635002 # HT TIP3
427 143 3 -0.834000 17.007000 17.670000 97.505997 # OT TIP3
428 143 2 0.417000 17.726000 17.506001 96.794998 # HT TIP3
429 143 2 0.417000 16.530001 16.797001 97.582001 # HT TIP3
430 144 3 -0.834000 4.735000 24.910000 128.873993 # OT TIP3
431 144 2 0.417000 5.175000 25.636000 129.320007 # HT TIP3
432 144 2 0.417000 4.076000 25.391001 128.266998 # HT TIP3
433 145 3 -0.834000 1.247000 4.969000 87.079002 # OT TIP3
434 145 2 0.417000 0.926000 4.068000 86.838997 # HT TIP3
435 145 2 0.417000 2.005000 5.085000 86.489998 # HT TIP3
436 146 3 -0.834000 5.856000 5.888000 92.545998 # OT TIP3
437 146 2 0.417000 6.384000 6.564000 92.960999 # HT TIP3
438 146 2 0.417000 6.092000 5.122000 93.037003 # HT TIP3
439 147 3 -0.834000 2.389000 6.085000 106.041000 # OT TIP3
440 147 2 0.417000 2.438000 7.002000 105.763000 # HT TIP3
441 147 2 0.417000 1.515000 5.812000 105.644997 # HT TIP3
442 148 3 -0.834000 3.181000 3.048000 117.652000 # OT TIP3
443 148 2 0.417000 3.098000 2.090000 117.494003 # HT TIP3
444 148 2 0.417000 3.870000 3.157000 118.370003 # HT TIP3
445 149 3 -0.834000 11.204000 7.221000 92.383003 # OT TIP3
446 149 2 0.417000 11.401000 7.412000 93.335999 # HT TIP3
447 149 2 0.417000 10.627000 6.472000 92.498001 # HT TIP3
448 150 3 -0.834000 27.396999 12.594000 77.179001 # OT TIP3
449 150 2 0.417000 27.014000 11.780000 76.804001 # HT TIP3
450 150 2 0.417000 28.375000 12.427000 77.053001 # HT TIP3
451 151 3 -0.834000 2.689000 2.206000 101.377998 # OT TIP3
452 151 2 0.417000 1.964000 1.591000 101.209999 # HT TIP3
453 151 2 0.417000 2.625000 2.305000 102.400002 # HT TIP3
454 152 3 -0.834000 12.263000 20.114000 86.458000 # OT TIP3
455 152 2 0.417000 12.779000 20.905001 86.365997 # HT TIP3
456 152 2 0.417000 12.935000 19.405001 86.401001 # HT TIP3
457 153 3 -0.834000 8.364000 11.103000 105.449997 # OT TIP3
458 153 2 0.417000 7.969000 11.775000 106.007004 # HT TIP3
459 153 2 0.417000 7.654000 10.492000 105.282997 # HT TIP3
460 154 3 -0.834000 5.147000 7.132000 114.033997 # OT TIP3
461 154 2 0.417000 4.342000 6.676000 113.697998 # HT TIP3
462 154 2 0.417000 5.130000 7.986000 113.589996 # HT TIP3
463 155 3 -0.834000 11.393000 8.916000 106.815002 # OT TIP3
464 155 2 0.417000 11.239000 8.287000 106.038002 # HT TIP3
465 155 2 0.417000 10.861000 8.471000 107.473999 # HT TIP3
466 156 3 -0.834000 7.585000 12.823000 121.401001 # OT TIP3
467 156 2 0.417000 7.528000 12.015000 121.980003 # HT TIP3
468 156 2 0.417000 8.497000 12.862000 121.142998 # HT TIP3
469 157 3 -0.834000 7.527000 2.724000 89.911003 # OT TIP3
470 157 2 0.417000 6.685000 3.301000 90.035004 # HT TIP3
471 157 2 0.417000 7.192000 1.903000 90.241997 # HT TIP3
472 158 3 -0.834000 18.312000 6.271000 82.375999 # OT TIP3
473 158 2 0.417000 17.719999 6.816000 81.879997 # HT TIP3
474 158 2 0.417000 18.051001 5.369000 82.168999 # HT TIP3
475 159 3 -0.834000 4.528000 8.199000 89.276001 # OT TIP3
476 159 2 0.417000 5.077000 7.693000 88.638000 # HT TIP3
477 159 2 0.417000 3.671000 7.820000 89.043999 # HT TIP3
478 160 3 -0.834000 11.549000 10.380000 103.382004 # OT TIP3
479 160 2 0.417000 11.895000 9.981000 104.154999 # HT TIP3
480 160 2 0.417000 12.405000 10.595000 102.883003 # HT TIP3
481 161 3 -0.834000 21.475000 7.800000 107.075996 # OT TIP3
482 161 2 0.417000 22.281000 7.230000 106.918999 # HT TIP3
483 161 2 0.417000 21.789000 8.319000 107.805000 # HT TIP3
484 162 3 -0.834000 13.021000 13.516000 123.223999 # OT TIP3
485 162 2 0.417000 13.311000 14.141000 124.035004 # HT TIP3
486 162 2 0.417000 13.765000 12.884000 123.147003 # HT TIP3
487 163 3 -0.834000 3.579000 6.219000 128.934998 # OT TIP3
488 163 2 0.417000 2.600000 6.278000 128.886002 # HT TIP3
489 163 2 0.417000 3.779000 7.034000 129.462006 # HT TIP3
490 164 3 -0.834000 12.993000 9.951000 78.714996 # OT TIP3
491 164 2 0.417000 13.408000 10.340000 79.487000 # HT TIP3
492 164 2 0.417000 13.482000 9.141000 78.539001 # HT TIP3
493 165 3 -0.834000 11.677000 10.110000 84.428001 # OT TIP3
494 165 2 0.417000 10.943000 10.672000 84.553001 # HT TIP3
495 165 2 0.417000 11.366000 9.288000 84.797997 # HT TIP3
496 166 3 -0.834000 2.338000 3.706000 91.898003 # OT TIP3
497 166 2 0.417000 2.701000 4.581000 92.044998 # HT TIP3
498 166 2 0.417000 2.617000 3.499000 90.921997 # HT TIP3
499 167 3 -0.834000 16.632999 13.093000 93.407997 # OT TIP3
500 167 2 0.417000 15.852000 13.269000 92.890999 # HT TIP3
501 167 2 0.417000 16.386999 12.376000 94.011002 # HT TIP3
502 168 3 -0.834000 2.399000 12.124000 94.392998 # OT TIP3
503 168 2 0.417000 1.639000 12.178000 93.805000 # HT TIP3
504 168 2 0.417000 2.758000 13.035000 94.355003 # HT TIP3
505 169 3 -0.834000 9.720000 14.404000 93.839996 # OT TIP3
506 169 2 0.417000 10.562000 14.698000 94.237999 # HT TIP3
507 169 2 0.417000 9.894000 13.499000 93.601997 # HT TIP3
508 170 3 -0.834000 3.958000 10.368000 98.918999 # OT TIP3