
     339 atoms
     226 bonds
     113 angles
       4 atom types
       1 bond types
       1 angle types

      0.0000     30.0000 xlo xhi
      0.0000     30.0000 ylo yhi
      0.0000     60.0000 zlo zhi

 Masses

 1  1.007940
 2 15.999400
 3 22.989771
 4 35.452999

Atoms

       1       1       2     -1.0484      6.1860     17.6960     73.0720
       2       1       1      0.5242      7.0830     17.9790     72.8160
       3       1       1      0.5242      6.3370     16.8320     73.4900
       4       2       2     -1.0484      4.7860     17.3180     62.3100
       5       2       1      0.5242      4.7810     16.3880     62.1960
       6       2       1      0.5242      5.5280     17.5800     61.7810
       7       3       2     -1.0484     17.1260     15.7010     65.5770
       8       3       1      0.5242     17.0700     15.2720     64.7260
       9       3       1      0.5242     17.8050     16.4540     65.4450
      10       4       2     -1.0484      3.7500      9.8440     70.6290
      11       4       1      0.5242      3.1100      9.2900     70.9980
      12       4       1      0.5242      3.1640     10.2450     69.9620
      13       5       2     -1.0484     11.6740      9.9090     65.9860
      14       5       1      0.5242     11.9980      9.8710     66.9320
      15       5       1      0.5242     10.7480     10.2700     66.0750
      16       6       2     -1.0484      2.6610      7.6810     62.9430
      17       6       1      0.5242      2.9430      6.7390     62.9810
      18       6       1      0.5242      1.7780      7.5990     62.4830
      19       7       2     -1.0484      5.8210     21.6030     72.2390
      20       7       1      0.5242      6.4660     21.7820     72.9630
      21       7       1      0.5242      6.3840     21.9140     71.4560
      22       8       2     -1.0484      6.6080     24.9180     73.9590
      23       8       1      0.5242      5.8400     24.6220     73.5450
      24       8       1      0.5242      7.0370     25.3360     73.2080
      25       9       2     -1.0484     11.4260      8.6040     63.4040
      26       9       1      0.5242     11.7610      9.4010     62.9940
      27       9       1      0.5242     11.2480      8.8890     64.3080
      28      10       2     -1.0484     23.5720      7.2420     64.4780
      29      10       1      0.5242     22.7050      6.8450     64.8300
      30      10       1      0.5242     23.9510      6.6590     63.8580
      31      11       2     -1.0484     11.9260      6.3650     62.0180
      32      11       1      0.5242     12.1380      5.7690     62.7540
      33      11       1      0.5242     11.6570      7.2120     62.4930
      34      12       2     -1.0484      1.8020     26.0840     66.5230
      35      12       1      0.5242      1.5790     27.0650     66.5050
      36      12       1      0.5242      2.7950     26.1630     66.4450
      37      13       2     -1.0484      5.2990     18.7740     68.1690
      38      13       1      0.5242      4.3030     18.8030     68.3220
      39      13       1      0.5242      5.5330     19.7550     67.9240
      40      14       2     -1.0484      9.8920     13.9770     66.3210
      41      14       1      0.5242      9.1190     13.4780     66.4430
      42      14       1      0.5242     10.3420     13.5570     65.5360
      43      15       2     -1.0484      3.1740     19.4680     63.2120
      44      15       1      0.5242      3.6320     18.6280     63.2030
      45      15       1      0.5242      3.9310     20.1200     63.2810
      46      16       2     -1.0484     16.4140      7.5690     63.5010
      47      16       1      0.5242     17.2240      7.8580     63.1280
      48      16       1      0.5242     15.8080      7.7000     62.6710
      49      17       2     -1.0484     10.9350     13.8760     71.1910
      50      17       1      0.5242     10.7090     13.0980     70.6340
      51      17       1      0.5242     10.4720     13.7660     72.0180
      52      18       2     -1.0484     14.8910      2.9190     63.9920
      53      18       1      0.5242     15.1980      3.6810     64.4220
      54      18       1      0.5242     14.2120      2.5770     64.5780
      55      19       2     -1.0484      9.8230     11.5810     69.8270
      56      19       1      0.5242      9.1830     11.7530     69.1480
      57      19       1      0.5242      9.3890     11.0610     70.5340
      58      20       2     -1.0484     11.2820      1.6400     63.0530
      59      20       1      0.5242     11.3670      1.9590     64.0160
      60      20       1      0.5242     10.7430      2.3230     62.6670
      61      21       2     -1.0484      5.6180      9.1250     68.7770
      62      21       1      0.5242      6.4050      8.9190     69.3140
      63      21       1      0.5242      5.0020      9.4580     69.4220
      64      22       2     -1.0484      4.4030      5.6870     70.8150
      65      22       1      0.5242      4.1090      6.2720     70.0970
      66      22       1      0.5242      4.8170      4.9730     70.3270
      67      23       2     -1.0484      7.3820     23.2710     63.3190
      68      23       1      0.5242      6.5500     23.0350     62.8470
      69      23       1      0.5242      7.8590     22.4720     63.1920
      70      24       2     -1.0484     21.6130     14.6160     72.0660
      71      24       1      0.5242     21.7390     14.9590     71.2180
      72      24       1      0.5242     20.6190     14.8160     72.2500
      73      25       2     -1.0484      6.4580     14.0970     65.5890
      74      25       1      0.5242      6.6730     14.0190     64.6120
      75      25       1      0.5242      5.8990     14.8940     65.6570
      76      26       2     -1.0484      6.1600     14.7440     68.9540
      77      26       1      0.5242      7.0480     14.4220     69.2070
      78      26       1      0.5242      6.0080     15.4930     69.5280
      79      27       2     -1.0484      2.6780     22.9420     62.0350
      80      27       1      0.5242      2.2720     22.2800     62.5920
      81      27       1      0.5242      2.4980     23.8090     62.4930
      82      28       2     -1.0484     10.6300     22.5470     64.0000
      83      28       1      0.5242     10.6010     23.4710     63.6430
      84      28       1      0.5242     10.2870     21.9540     63.3120
      85      29       2     -1.0484      3.3440     11.5710     63.6240
      86      29       1      0.5242      3.1220     11.7530     64.5530
      87      29       1      0.5242      3.9470     10.7910     63.6170
      88      30       2     -1.0484      1.8230     24.6680     63.8880
      89      30       1      0.5242      2.6360     24.3160     64.3400
      90      30       1      0.5242      1.2530     24.9780     64.6400
      91      31       2     -1.0484      3.7100      7.1850     68.5400
      92      31       1      0.5242      3.4670      7.2360     67.5610
      93      31       1      0.5242      4.4100      7.8550     68.5800
      94      32       2     -1.0484     17.1920     23.4030     64.7820
      95      32       1      0.5242     17.3630     23.8810     65.6220
      96      32       1      0.5242     17.4270     24.0650     64.0860
      97      33       2     -1.0484     14.5400     23.2200     63.7480
      98      33       1      0.5242     13.9650     23.4750     64.4620
      99      33       1      0.5242     15.4280     23.4040     64.0740
     100      34       2     -1.0484      9.1810     24.4650     68.6370
     101      34       1      0.5242     10.0070     24.9370     68.7030
     102      34       1      0.5242      8.5170     25.1170     68.3120
     103      35       2     -1.0484     11.9290     15.7500     66.7180
     104      35       1      0.5242     11.0500     15.5410     66.4080
     105      35       1      0.5242     12.4010     14.8790     66.7170
     106      36       2     -1.0484      1.7470      5.4690     71.5790
     107      36       1      0.5242      1.4260      4.5680     71.3390
     108      36       1      0.5242      2.5050      5.5850     70.9900
     109      37       2     -1.0484     27.8970     13.0940     61.6790
     110      37       1      0.5242     27.5140     12.2800     61.3040
     111      37       1      0.5242     28.8750     12.9270     61.5530
     112      38       2     -1.0484     12.7630     20.6140     70.9580
     113      38       1      0.5242     13.2790     21.4050     70.8660
     114      38       1      0.5242     13.4350     19.9050     70.9010
     115      39       2     -1.0484     18.8120      6.7710     66.8760
     116      39       1      0.5242     18.2200      7.3160     66.3800
     117      39       1      0.5242     18.5510      5.8690     66.6690
     118      40       2     -1.0484      5.0280      8.6990     73.7760
     119      40       1      0.5242      5.5770      8.1930     73.1380
     120      40       1      0.5242      4.1710      8.3200     73.5440
     121      41       2     -1.0484     13.4930     10.4510     63.2150
     122      41       1      0.5242     13.9080     10.8400     63.9870
     123      41       1      0.5242     13.9820      9.6410     63.0390
     124      42       2     -1.0484     12.1770     10.6100     68.9280
     125      42       1      0.5242     11.4430     11.1720     69.0530
     126      42       1      0.5242     11.8660      9.7880     69.2980
     127      43       2     -1.0484     19.4410     17.1340     64.8400
     128      43       1      0.5242     19.6100     17.4880     63.9680
     129      43       1      0.5242     20.1130     16.4070     64.9610
     130      44       2     -1.0484     16.4300      4.2740     68.4070
     131      44       1      0.5242     16.4580      3.7410     69.1570
     132      44       1      0.5242     16.9330      3.7400     67.7700
     133      45       2     -1.0484     14.1340      5.5350     67.5590
     134      45       1      0.5242     13.4340      4.9320     67.9380
     135      45       1      0.5242     14.9590      5.1620     67.9650
     136      46       2     -1.0484     17.0080     18.7970     72.4100
     137      46       1      0.5242     17.6950     18.7020     71.6840
     138      46       1      0.5242     16.1860     18.5210     71.9420
     139      47       2     -1.0484      8.8300     20.7510     62.9950
     140      47       1      0.5242      8.2570     20.8700     62.2470
     141      47       1      0.5242      9.3290     19.9230     62.8850
     142      48       2     -1.0484     14.6630     27.4320     67.5290
     143      48       1      0.5242     14.8510     27.2610     68.4820
     144      48       1      0.5242     14.3550     28.3750     67.5320
     145      49       2     -1.0484     16.0270     12.2490     70.8060
     146      49       1      0.5242     16.6360     11.9530     70.1040
     147      49       1      0.5242     15.9290     13.1940     70.5450
     148      50       2     -1.0484     14.9120     27.4620     63.2860
     149      50       1      0.5242     14.6670     28.3880     63.5390
     150      50       1      0.5242     14.4880     26.9160     64.0000
     151      51       2     -1.0484     15.6030     19.1100     64.2130
     152      51       1      0.5242     15.2750     18.6550     64.9630
     153      51       1      0.5242     14.8420     19.6060     63.8780
     154      52       2     -1.0484      5.7530     21.1390     66.4750
     155      52       1      0.5242      5.7690     22.0530     66.8460
     156      52       1      0.5242      6.6630     21.0310     66.2010
     157      53       2     -1.0484      3.3690     20.6200     71.8380
     158      53       1      0.5242      3.0510     20.4250     72.7010
     159      53       1      0.5242      4.3470     20.7170     71.9230
     160      54       2     -1.0484     16.1580     16.2180     62.4530
     161      54       1      0.5242     16.2860     17.1230     62.1600
     162      54       1      0.5242     15.1750     16.2190     62.5870
     163      55       2     -1.0484      8.9290     10.6010     65.3220
     164      55       1      0.5242      8.3640     11.3400     64.9120
     165      55       1      0.5242      8.3180     10.0110     65.8200
     166      56       2     -1.0484     11.2090     27.9350     62.9730
     167      56       1      0.5242     10.3970     28.2880     62.5200
     168      56       1      0.5242     11.5230     28.6720     63.6240
     169      57       2     -1.0484     14.7550     26.7940     70.5200
     170      57       1      0.5242     13.8260     26.6690     70.7670
     171      57       1      0.5242     15.1480     26.7510     71.3740
     172      58       2     -1.0484      7.7030     27.5930     65.8480
     173      58       1      0.5242      8.4070     28.2070     65.7610
     174      58       1      0.5242      7.7160     27.0680     65.0130
     175      59       2     -1.0484     22.3710     18.8850     66.8750
     176      59       1      0.5242     21.7310     18.1900     67.2010
     177      59       1      0.5242     23.1570     18.7710     67.3790
     178      60       2     -1.0484     22.0520     15.4900     65.2920
     179      60       1      0.5242     21.6640     15.0250     66.0090
     180      60       1      0.5242     22.7910     16.0060     65.7470
     181      61       2     -1.0484      4.3200      2.4390     64.6930
     182      61       1      0.5242      4.0180      2.2630     63.7950
     183      61       1      0.5242      5.2180      2.7370     64.5330
     184      62       2     -1.0484     17.0960      9.4050     71.6280
     185      62       1      0.5242     17.0850     10.3900     71.7150
     186      62       1      0.5242     17.0770      9.3480     70.6210
     187      63       2     -1.0484     19.4790      4.0890     62.3780
     188      63       1      0.5242     18.5360      4.2080     62.5740
     189      63       1      0.5242     19.6020      3.1400     62.1970
     190      64       2     -1.0484     16.5290      6.9820     69.5190
     191      64       1      0.5242     17.3980      6.6320     69.8120
     192      64       1      0.5242     16.2230      6.3330     68.8670
     193      65       2     -1.0484      5.5390      3.6050     69.2950
     194      65       1      0.5242      6.4600      3.7020     69.1230
     195      65       1      0.5242      5.4340      2.6160     69.3630
     196      66       2     -1.0484     21.0280      8.0800     70.0220
     197      66       1      0.5242     21.6750      8.7150     70.0820
     198      66       1      0.5242     20.3850      8.5730     69.5270
     199      67       2     -1.0484      9.8830     22.5810     66.7600
     200      67       1      0.5242      9.7050     23.2320     67.4460
     201      67       1      0.5242     10.3570     23.0080     66.0770
     202      68       2     -1.0484     20.3990     13.3640     62.9800
     203      68       1      0.5242     20.7150     12.4990     62.5980
     204      68       1      0.5242     20.0910     13.0590     63.8460
     205      69       2     -1.0484     25.1650      7.8190     66.7750
     206      69       1      0.5242     24.8670      7.6100     65.8730
     207      69       1      0.5242     24.3620      8.1770     67.2510
     208      70       2     -1.0484     13.7930     14.3640     73.1680
     209      70       1      0.5242     13.7870     14.5480     72.2230
     210      70       1      0.5242     12.9950     14.7940     73.3990
     211      71       2     -1.0484      7.6670      8.5470     70.6460
     212      71       1      0.5242      7.1030      7.9750     71.2960
     213      71       1      0.5242      8.5580      8.2920     71.0460
     214      72       2     -1.0484     11.1290     18.4850     67.5500
     215      72       1      0.5242     10.2310     18.4670     67.9200
     216      72       1      0.5242     11.1080     17.7020     66.9850
     217      73       2     -1.0484      5.6540      6.7170     66.0230
     218      73       1      0.5242      6.0590      6.1260     65.3950
     219      73       1      0.5242      6.4090      6.7850     66.6340
     220      74       2     -1.0484     13.3360     15.9050     70.3500
     221      74       1      0.5242     12.8490     16.5880     69.8830
     222      74       1      0.5242     12.5680     15.3750     70.7700
     223      75       2     -1.0484      4.6860      9.3530     64.4010
     224      75       1      0.5242      5.4940      8.9300     64.0840
     225      75       1      0.5242      4.0410      8.7270     64.1970
     226      76       2     -1.0484     14.2630     24.5130     68.3260
     227      76       1      0.5242     15.0830     24.9000     68.6890
     228      76       1      0.5242     14.6690     23.8030     67.7390
     229      77       2     -1.0484      5.2890     26.6750     62.4750
     230      77       1      0.5242      6.0140     26.2970     62.9090
     231      77       1      0.5242      4.6280     26.0270     62.5130
     232      78       2     -1.0484     11.0300     12.4410     64.4340
     233      78       1      0.5242     10.2740     11.8270     64.4220
     234      78       1      0.5242     11.5330     12.3620     63.6610
     235      79       2     -1.0484     11.5500     10.5440     72.3150
     236      79       1      0.5242     11.0550     11.3430     72.3960
     237      79       1      0.5242     12.4600     10.8460     72.3370
     238      80       2     -1.0484     14.0680      3.9140     71.1490
     239      80       1      0.5242     13.8030      3.4730     70.2950
     240      80       1      0.5242     15.0100      3.8490     71.1120
     241      81       2     -1.0484      6.4500     10.0670     66.3370
     242      81       1      0.5242      5.7220      9.8400     65.7110
     243      81       1      0.5242      5.9390      9.7700     67.1170
     244      82       2     -1.0484     21.2550     26.9830     64.1290
     245      82       1      0.5242     21.4720     27.4110     64.9540
     246      82       1      0.5242     20.8680     26.0980     64.3260
     247      83       2     -1.0484      4.2480     23.8760     64.7010
     248      83       1      0.5242      3.6620     23.3340     65.2480
     249      83       1      0.5242      5.1060     23.4100     64.7810
     250      84       2     -1.0484      9.9430     20.6070     70.3930
     251      84       1      0.5242     10.8900     20.6660     70.1740
     252      84       1      0.5242      9.5510     20.2020     69.5860
     253      85       2     -1.0484     22.8920     10.4900     63.9540
     254      85       1      0.5242     23.6620      9.9650     64.0070
     255      85       1      0.5242     22.2790      9.9100     63.5580
     256      86       2     -1.0484      7.9010     22.5570     70.3260
     257      86       1      0.5242      8.4100     21.7440     70.3840
     258      86       1      0.5242      8.4740     23.0770     69.7590
     259      87       2     -1.0484      7.8570     12.1380     67.8290
     260      87       1      0.5242      7.1070     12.7500     67.8000
     261      87       1      0.5242      7.4800     11.3870     67.3530
     262      88       2     -1.0484     11.3090     22.5000     72.4810
     263      88       1      0.5242     12.0140     21.9280     72.1850
     264      88       1      0.5242     10.5950     21.9610     72.1830
     265      89       2     -1.0484     17.6890     27.2290     69.2890
     266      89       1      0.5242     18.1920     26.7910     70.0000
     267      89       1      0.5242     17.0020     27.6740     69.8520
     268      90       2     -1.0484     13.1130      1.9210     65.9420
     269      90       1      0.5242     13.8190      1.6350     66.5620
     270      90       1      0.5242     12.8140      2.8960     66.2230
     271      91       2     -1.0484      3.4210      4.7750     66.0580
     272      91       1      0.5242      3.6840      3.9340     65.6520
     273      91       1      0.5242      4.2190      5.3400     66.0480
     274      92       2     -1.0484     20.8190      2.1850     67.4210
     275      92       1      0.5242     21.3540      2.6430     66.7520
     276      92       1      0.5242     20.7670      1.2320     67.0990
     277      93       2     -1.0484      8.0610     25.9720     63.5430
     278      93       1      0.5242      8.9850     26.2600     63.4370
     279      93       1      0.5242      8.1510     25.0030     63.4450
     280      94       2     -1.0484      6.1410      2.6110     61.4990
     281      94       1      0.5242      5.6970      2.1100     62.2340
     282      94       1      0.5242      7.0310      2.3020     61.5860
     283      95       2     -1.0484     18.9310     15.3720     72.5940
     284      95       1      0.5242     18.0100     15.4240     72.2870
     285      95       1      0.5242     18.9260     15.9560     73.3990
     286      96       2     -1.0484      3.5090      4.5050     73.9100
     287      96       1      0.5242      3.1140      5.1380     73.3150
     288      96       1      0.5242      3.7150      3.7120     73.3830
     289      97       2     -1.0484      6.4610      7.7540     62.9430
     290      97       1      0.5242      7.4120      7.6270     63.0180
     291      97       1      0.5242      6.2090      6.9560     62.4340
     292      98       2     -1.0484     23.5230      3.1580     62.4980
     293      98       1      0.5242     23.4320      3.0720     61.5460
     294      98       1      0.5242     23.1180      2.3210     62.8610
     295      99       2     -1.0484     12.7800     14.5090     61.9830
     296      99       1      0.5242     13.3110     14.4220     62.7940
     297      99       1      0.5242     13.3790     14.8160     61.3000
     298     100       2     -1.0484     14.4100     14.7960     64.2060
     299     100       1      0.5242     13.8600     14.3420     64.9520
     300     100       1      0.5242     15.3780     14.6240     64.4860
     301     101       2     -1.0484      8.3140      1.2280     70.1520
     302     101       1      0.5242      8.4470      1.1960     69.1570
     303     101       1      0.5242      9.2190      1.3360     70.4260
     304     102       2     -1.0484     11.7010     25.8220     68.5390
     305     102       1      0.5242     12.6250     25.5080     68.6160
     306     102       1      0.5242     11.3770     25.7180     69.4760
     307     103       2     -1.0484     21.8460     21.3620     65.7410
     308     103       1      0.5242     21.8100     21.8460     66.6440
     309     103       1      0.5242     21.8400     20.3890     65.9350
     310     104       2     -1.0484     11.0280     25.0280     71.0070
     311     104       1      0.5242     11.0750     24.1320     71.4240
     312     104       1      0.5242     11.0400     25.6270     71.7850
     313     105       2     -1.0484     17.2140      8.8470     65.7660
     314     105       1      0.5242     16.2540      8.9920     66.1610
     315     105       1      0.5242     16.9050      8.3920     64.9960
     316     106       2     -1.0484     13.4400     13.4070     66.3700
     317     106       1      0.5242     12.6520     12.8870     66.1050
     318     106       1      0.5242     13.8930     12.8670     66.9770
     319     107       2     -1.0484      7.9680     12.6290     63.3530
     320     107       1      0.5242      7.5750     11.8960     62.8070
     321     107       1      0.5242      8.0830     13.2900     62.5900
     322     108       2     -1.0484     14.5330     11.5500     68.1600
     323     108       1      0.5242     13.6080     11.3090     68.4900
     324     108       1      0.5242     15.0080     11.9400     68.9250
     325     109       2     -1.0484     13.8680     25.8790     65.3260
     326     109       1      0.5242     14.1780     26.3900     66.1170
     327     109       1      0.5242     14.1890     25.0090     65.5030
     328     110       2     -1.0484     25.9640     14.8760     63.8690
     329     110       1      0.5242     25.2110     14.1990     63.8730
     330     110       1      0.5242     26.1570     15.0560     62.9100
     331     111       2     -1.0484     24.1940     21.2110     71.4130
     332     111       1      0.5242     24.2870     20.8620     72.3400
     333     111       1      0.5242     24.9030     21.8690     71.2730
     334     112       2     -1.0484     12.6420     20.0300     65.8660
     335     112       1      0.5242     11.7520     19.7860     66.2090
     336     112       1      0.5242     12.5340     20.1470     64.8970
     337     113       2     -1.0484     14.5500     22.5220     70.5650
     338     113       1      0.5242     14.2790     22.7440     69.6550
     339     113       1      0.5242     14.8590     23.4190     70.9140

Bonds

       1       1       1       2
       2       1       1       3
       3       1       4       5
       4       1       4       6
       5       1       7       8
       6       1       7       9
       7       1      10      11
       8       1      10      12
       9       1      13      14
      10       1      13      15
      11       1      16      17
      12       1      16      18
      13       1      19      20
      14       1      19      21
      15       1      22      23
      16       1      22      24
      17       1      25      26
      18       1      25      27
      19       1      28      29
      20       1      28      30
      21       1      31      32
      22       1      31      33
      23       1      34      35
      24       1      34      36
      25       1      37      38
      26       1      37      39
      27       1      40      41
      28       1      40      42
      29       1      43      44
      30       1      43      45
      31       1      46      47
      32       1      46      48
      33       1      49      50
      34       1      49      51
      35       1      52      53
      36       1      52      54
      37       1      55      56
      38       1      55      57
      39       1      58      59
      40       1      58      60
      41       1      61      62
      42       1      61      63
      43       1      64      65
      44       1      64      66
      45       1      67      68
      46       1      67      69
      47       1      70      71
      48       1      70      72
      49       1      73      74
      50       1      73      75
      51       1      76      77
      52       1      76      78
      53       1      79      80
      54       1      79      81
      55       1      82      83
      56       1      82      84
      57       1      85      86
      58       1      85      87
      59       1      88      89
      60       1      88      90
      61       1      91      92
      62       1      91      93
      63       1      94      95
      64       1      94      96
      65       1      97      98
      66       1      97      99
      67       1     100     101
      68       1     100     102
      69       1     103     104
      70       1     103     105
      71       1     106     107
      72       1     106     108
      73       1     109     110
      74       1     109     111
      75       1     112     113
      76       1     112     114
      77       1     115     116
      78       1     115     117
      79       1     118     119
      80       1     118     120
      81       1     121     122
      82       1     121     123
      83       1     124     125
      84       1     124     126
      85       1     127     128
      86       1     127     129
      87       1     130     131
      88       1     130     132
      89       1     133     134
      90       1     133     135
      91       1     136     137
      92       1     136     138
      93       1     139     140
      94       1     139     141
      95       1     142     143
      96       1     142     144
      97       1     145     146
      98       1     145     147
      99       1     148     149
     100       1     148     150
     101       1     151     152
     102       1     151     153
     103       1     154     155
     104       1     154     156
     105       1     157     158
     106       1     157     159
     107       1     160     161
     108       1     160     162
     109       1     163     164
     110       1     163     165
     111       1     166     167
     112       1     166     168
     113       1     169     170
     114       1     169     171
     115       1     172     173
     116       1     172     174
     117       1     175     176
     118       1     175     177
     119       1     178     179
     120       1     178     180
     121       1     181     182
     122       1     181     183
     123       1     184     185
     124       1     184     186
     125       1     187     188
     126       1     187     189
     127       1     190     191
     128       1     190     192
     129       1     193     194
     130       1     193     195
     131       1     196     197
     132       1     196     198
     133       1     199     200
     134       1     199     201
     135       1     202     203
     136       1     202     204
     137       1     205     206
     138       1     205     207
     139       1     208     209
     140       1     208     210
     141       1     211     212
     142       1     211     213
     143       1     214     215
     144       1     214     216
     145       1     217     218
     146       1     217     219
     147       1     220     221
     148       1     220     222
     149       1     223     224
     150       1     223     225