LAMMPS data file. CGCMM style. atom_style full generated by VMD/TopoTools v1.1 on Thu Sep 20 10:22:44 +0800 2012
 3405 atoms
 2230 bonds
 1115 angles
 0 dihedrals
 0 impropers
 4 atom types
 1 bond types
 1 angle types
 0 dihedral types
 0 improper types
 0.094000 29.094000  xlo xhi
 0.169001 29.169001  ylo yhi
 63.139498 109.139498  zlo zhi

# Pair Coeffs
#
# 1  CLA
# 2  HT
# 3  OT
# 4  SOD

# Bond Coeffs
#
# 1  

# Angle Coeffs
#
# 1  unknown

 Masses

 1 35.452999 # CLA
 2 1.007940 # HT
 3 15.999400 # OT
 4 22.989771 # SOD

 Atoms

1 1 3 -0.834000 3.668000 10.082000 78.903999 # OT TIP3
2 1 2 0.417000 3.224000 10.451000 78.100998 # HT TIP3
3 1 2 0.417000 3.092000 10.379000 79.626999 # HT TIP3
4 2 3 -0.834000 6.033000 4.876000 83.890999 # OT TIP3
5 2 2 0.417000 6.078000 5.224000 84.797997 # HT TIP3
6 2 2 0.417000 6.592000 4.088000 83.960999 # HT TIP3
7 3 3 -0.834000 0.975000 14.007000 101.567001 # OT TIP3
8 3 2 0.417000 1.137000 13.263000 100.966003 # HT TIP3
9 3 2 0.417000 0.619000 13.539000 102.360001 # HT TIP3
10 4 3 -0.834000 5.186000 16.695999 75.071999 # OT TIP3
11 4 2 0.417000 6.083000 16.979000 74.816002 # HT TIP3
12 4 2 0.417000 5.337000 15.832000 75.489998 # HT TIP3
13 5 3 -0.834000 14.437000 5.794000 93.556000 # OT TIP3
14 5 2 0.417000 13.524000 5.319000 93.531998 # HT TIP3
15 5 2 0.417000 14.984000 5.113000 93.973000 # HT TIP3
16 6 3 -0.834000 8.324000 13.811000 84.332001 # OT TIP3
17 6 2 0.417000 8.633000 13.348000 85.112000 # HT TIP3
18 6 2 0.417000 8.506000 13.116000 83.644997 # HT TIP3
19 7 3 -0.834000 11.462000 26.025999 94.373001 # OT TIP3
20 7 2 0.417000 11.386000 26.695000 95.075996 # HT TIP3
21 7 2 0.417000 10.619000 26.080000 93.935997 # HT TIP3
22 8 3 -0.834000 3.786000 16.318001 64.309998 # OT TIP3
23 8 2 0.417000 3.781000 15.388000 64.195999 # HT TIP3
24 8 2 0.417000 4.528000 16.580000 63.780998 # HT TIP3
25 9 3 -0.834000 16.125999 14.701000 67.577003 # OT TIP3
26 9 2 0.417000 16.070000 14.272000 66.725998 # HT TIP3
27 9 2 0.417000 16.805000 15.454000 67.445000 # HT TIP3
28 10 3 -0.834000 2.750000 8.844000 72.628998 # OT TIP3
29 10 2 0.417000 2.110000 8.290000 72.998001 # HT TIP3
30 10 2 0.417000 2.164000 9.245000 71.961998 # HT TIP3
31 11 3 -0.834000 4.240000 7.037000 90.081001 # OT TIP3
32 11 2 0.417000 4.656000 7.831000 89.657997 # HT TIP3
33 11 2 0.417000 3.786000 7.428000 90.811996 # HT TIP3
34 12 3 -0.834000 7.172000 6.999000 101.581001 # OT TIP3
35 12 2 0.417000 7.040000 7.550000 102.327003 # HT TIP3
36 12 2 0.417000 6.244000 6.756000 101.263000 # HT TIP3
37 13 3 -0.834000 10.674000 8.909000 67.986000 # OT TIP3
38 13 2 0.417000 10.998000 8.871000 68.931999 # HT TIP3
39 13 2 0.417000 9.748000 9.270000 68.074997 # HT TIP3
40 14 3 -0.834000 0.002000 5.667000 77.591003 # OT TIP3
41 14 2 0.417000 0.483000 5.990000 76.830002 # HT TIP3
42 14 2 0.417000 0.608000 5.781000 78.347000 # HT TIP3
43 15 3 -0.834000 9.882000 9.156000 77.916000 # OT TIP3
44 15 2 0.417000 9.574000 9.753000 78.597000 # HT TIP3
45 15 2 0.417000 10.021000 8.264000 78.289001 # HT TIP3
46 16 3 -0.834000 7.964000 6.107000 92.453003 # OT TIP3
47 16 2 0.417000 8.242000 5.206000 92.598999 # HT TIP3
48 16 2 0.417000 8.422000 6.545000 93.237000 # HT TIP3
49 17 3 -0.834000 24.177000 14.271000 101.125999 # OT TIP3
50 17 2 0.417000 23.534000 13.942000 100.459000 # HT TIP3
51 17 2 0.417000 25.062000 14.082000 100.681999 # HT TIP3
52 18 3 -0.834000 6.316000 5.288000 90.495003 # OT TIP3
53 18 2 0.417000 6.640000 5.631000 91.362999 # HT TIP3
54 18 2 0.417000 5.563000 5.852000 90.279999 # HT TIP3
55 19 3 -0.834000 1.661000 6.681000 64.943001 # OT TIP3
56 19 2 0.417000 1.943000 5.739000 64.981003 # HT TIP3
57 19 2 0.417000 0.778000 6.599000 64.483002 # HT TIP3
58 20 3 -0.834000 4.821000 20.603001 74.238998 # OT TIP3
59 20 2 0.417000 5.466000 20.782000 74.962997 # HT TIP3
60 20 2 0.417000 5.384000 20.914000 73.456001 # HT TIP3
61 21 3 -0.834000 15.022000 20.855000 75.831001 # OT TIP3
62 21 2 0.417000 14.222000 20.809000 76.292000 # HT TIP3
63 21 2 0.417000 14.673000 21.056999 74.917999 # HT TIP3
64 22 3 -0.834000 1.339000 3.782000 85.814003 # OT TIP3
65 22 2 0.417000 0.839000 3.425000 85.086998 # HT TIP3
66 22 2 0.417000 1.775000 3.077000 86.138000 # HT TIP3
67 23 3 -0.834000 0.485000 15.137000 85.475998 # OT TIP3
68 23 2 0.417000 0.644000 15.425000 86.348999 # HT TIP3
69 23 2 0.417000 0.312000 15.961000 84.974998 # HT TIP3
70 24 3 -0.834000 13.143000 13.795000 96.478996 # OT TIP3
71 24 2 0.417000 12.931000 13.553000 97.356003 # HT TIP3
72 24 2 0.417000 13.523000 14.662000 96.518997 # HT TIP3
73 25 3 -0.834000 12.421000 20.594999 94.343002 # OT TIP3
74 25 2 0.417000 12.330000 20.621000 95.303001 # HT TIP3
75 25 2 0.417000 12.281000 21.525999 94.063004 # HT TIP3
76 26 3 -0.834000 5.608000 23.917999 75.959000 # OT TIP3
77 26 2 0.417000 4.840000 23.622000 75.544998 # HT TIP3
78 26 2 0.417000 6.037000 24.336000 75.208000 # HT TIP3
79 27 3 -0.834000 10.426000 7.604000 65.403999 # OT TIP3
80 27 2 0.417000 10.761000 8.401000 64.994003 # HT TIP3
81 27 2 0.417000 10.248000 7.889000 66.307999 # HT TIP3
82 28 3 -0.834000 8.569000 25.684000 75.210999 # OT TIP3
83 28 2 0.417000 9.123000 25.542000 76.014999 # HT TIP3
84 28 2 0.417000 8.805000 26.594999 74.927002 # HT TIP3
85 29 3 -0.834000 4.269000 22.752001 79.264999 # OT TIP3
86 29 2 0.417000 4.149000 23.680000 78.888000 # HT TIP3
87 29 2 0.417000 5.061000 22.796000 79.776001 # HT TIP3
88 30 3 -0.834000 3.599000 13.689000 86.583000 # OT TIP3
89 30 2 0.417000 3.430000 12.876000 87.061996 # HT TIP3
90 30 2 0.417000 4.561000 13.769000 86.661003 # HT TIP3
91 31 3 -0.834000 19.952000 1.961000 89.164001 # OT TIP3
92 31 2 0.417000 20.414000 1.079000 89.079002 # HT TIP3
93 31 2 0.417000 20.667000 2.653000 89.013000 # HT TIP3
94 32 3 -0.834000 23.517000 11.039000 105.783997 # OT TIP3
95 32 2 0.417000 22.687000 10.572000 105.893997 # HT TIP3
96 32 2 0.417000 24.010000 10.506000 106.361000 # HT TIP3
97 33 3 -0.834000 22.572001 6.242000 66.477997 # OT TIP3
98 33 2 0.417000 21.705000 5.845000 66.830002 # HT TIP3
99 33 2 0.417000 22.951000 5.659000 65.858002 # HT TIP3
100 34 3 -0.834000 10.926000 5.365000 64.017998 # OT TIP3
101 34 2 0.417000 11.138000 4.769000 64.753998 # HT TIP3
102 34 2 0.417000 10.657000 6.212000 64.492996 # HT TIP3
103 35 3 -0.834000 8.647000 4.314000 82.278000 # OT TIP3
104 35 2 0.417000 7.964000 3.611000 82.325996 # HT TIP3
105 35 2 0.417000 8.043000 5.064000 82.153000 # HT TIP3
106 36 3 -0.834000 8.381000 17.319000 86.275002 # OT TIP3
107 36 2 0.417000 7.516000 17.340000 86.695000 # HT TIP3
108 36 2 0.417000 8.431000 18.263000 86.009003 # HT TIP3
109 37 3 -0.834000 4.342000 11.388000 88.271004 # OT TIP3
110 37 2 0.417000 4.842000 10.697000 88.678001 # HT TIP3
111 37 2 0.417000 4.903000 12.148000 88.578003 # HT TIP3
112 38 3 -0.834000 1.670000 15.675000 92.166000 # OT TIP3
113 38 2 0.417000 2.120000 15.950000 92.973999 # HT TIP3
114 38 2 0.417000 0.763000 15.517000 92.468002 # HT TIP3
115 39 3 -0.834000 16.469999 28.089001 65.181000 # OT TIP3
116 39 2 0.417000 16.854000 27.230000 65.499001 # HT TIP3
117 39 2 0.417000 15.533000 27.856001 65.087997 # HT TIP3
118 40 3 -0.834000 0.802000 25.084000 68.523003 # OT TIP3
119 40 2 0.417000 0.579000 26.065001 68.504997 # HT TIP3
120 40 2 0.417000 1.795000 25.163000 68.445000 # HT TIP3
121 41 3 -0.834000 4.299000 17.774000 70.168999 # OT TIP3
122 41 2 0.417000 3.303000 17.802999 70.321999 # HT TIP3
123 41 2 0.417000 4.533000 18.754999 69.924004 # HT TIP3
124 42 3 -0.834000 8.892000 12.977000 68.320999 # OT TIP3
125 42 2 0.417000 8.119000 12.478000 68.443001 # HT TIP3
126 42 2 0.417000 9.342000 12.557000 67.536003 # HT TIP3
127 43 3 -0.834000 2.708000 20.969000 87.503998 # OT TIP3
128 43 2 0.417000 2.589000 20.945000 86.556000 # HT TIP3
129 43 2 0.417000 3.123000 21.834999 87.549004 # HT TIP3
130 44 3 -0.834000 2.428000 12.731000 93.487000 # OT TIP3
131 44 2 0.417000 2.719000 12.073000 92.830002 # HT TIP3
132 44 2 0.417000 2.582000 13.542000 93.008003 # HT TIP3
133 45 3 -0.834000 2.174000 18.468000 65.211998 # OT TIP3
134 45 2 0.417000 2.632000 17.628000 65.203003 # HT TIP3
135 45 2 0.417000 2.931000 19.120001 65.280998 # HT TIP3
136 46 3 -0.834000 5.048000 9.046000 99.578003 # OT TIP3
137 46 2 0.417000 5.064000 9.889000 100.058998 # HT TIP3
138 46 2 0.417000 4.622000 9.224000 98.742996 # HT TIP3
139 47 3 -0.834000 12.390000 27.306999 100.360001 # OT TIP3
140 47 2 0.417000 11.845000 28.113001 100.292999 # HT TIP3
141 47 2 0.417000 12.045000 26.920000 101.175003 # HT TIP3
142 48 3 -0.834000 18.870001 21.459999 91.971001 # OT TIP3
143 48 2 0.417000 17.903000 21.288000 91.721001 # HT TIP3
144 48 2 0.417000 19.073999 20.691000 92.591003 # HT TIP3
145 49 3 -0.834000 13.612000 17.680000 81.622002 # OT TIP3
146 49 2 0.417000 13.744000 17.414000 82.508003 # HT TIP3
147 49 2 0.417000 14.526000 17.830999 81.347000 # HT TIP3
148 50 3 -0.834000 1.287000 24.132000 86.737000 # OT TIP3
149 50 2 0.417000 1.235000 23.924000 87.731003 # HT TIP3
150 50 2 0.417000 2.088000 24.709000 86.639000 # HT TIP3
151 51 3 -0.834000 6.365000 2.674000 91.058998 # OT TIP3
152 51 2 0.417000 5.799000 3.437000 90.848999 # HT TIP3
153 51 2 0.417000 7.175000 3.055000 91.403000 # HT TIP3
154 52 3 -0.834000 9.339000 6.738000 94.901001 # OT TIP3
155 52 2 0.417000 8.904000 7.236000 95.634003 # HT TIP3
156 52 2 0.417000 9.404000 5.838000 95.222000 # HT TIP3
157 53 3 -0.834000 15.414000 6.569000 65.500999 # OT TIP3
158 53 2 0.417000 16.224001 6.858000 65.127998 # HT TIP3
159 53 2 0.417000 14.808000 6.700000 64.670998 # HT TIP3
160 54 3 -0.834000 7.571000 3.798000 97.095001 # OT TIP3
161 54 2 0.417000 6.966000 4.404000 96.494003 # HT TIP3
162 54 2 0.417000 7.446000 4.095000 98.028000 # HT TIP3
163 55 3 -0.834000 9.935000 12.876000 73.191002 # OT TIP3
164 55 2 0.417000 9.709000 12.098000 72.634003 # HT TIP3
165 55 2 0.417000 9.472000 12.766000 74.017998 # HT TIP3
166 56 3 -0.834000 7.060000 2.074000 82.830002 # OT TIP3
167 56 2 0.417000 7.650000 1.619000 83.528000 # HT TIP3
168 56 2 0.417000 6.148000 1.796000 83.035004 # HT TIP3
169 57 3 -0.834000 10.895000 19.325001 102.064003 # OT TIP3
170 57 2 0.417000 10.367000 18.768000 102.668999 # HT TIP3
171 57 2 0.417000 11.786000 18.958000 102.228996 # HT TIP3
172 58 3 -0.834000 13.891000 1.919000 65.991997 # OT TIP3
173 58 2 0.417000 14.198000 2.681000 66.421997 # HT TIP3
174 58 2 0.417000 13.212000 1.577000 66.578003 # HT TIP3
175 59 3 -0.834000 8.823000 10.581000 71.827003 # OT TIP3
176 59 2 0.417000 8.183000 10.753000 71.148003 # HT TIP3
177 59 2 0.417000 8.389000 10.061000 72.533997 # HT TIP3
178 60 3 -0.834000 9.078000 11.967000 75.734001 # OT TIP3
179 60 2 0.417000 8.228000 11.561000 75.992996 # HT TIP3
180 60 2 0.417000 9.512000 12.194000 76.559998 # HT TIP3
181 61 3 -0.834000 10.282000 0.640000 65.053001 # OT TIP3
182 61 2 0.417000 10.367000 0.959000 66.015999 # HT TIP3
183 61 2 0.417000 9.743000 1.323000 64.667000 # HT TIP3
184 62 3 -0.834000 4.618000 8.125000 70.777000 # OT TIP3
185 62 2 0.417000 5.405000 7.919000 71.314003 # HT TIP3
186 62 2 0.417000 4.002000 8.458000 71.421997 # HT TIP3
187 63 3 -0.834000 3.403000 4.687000 72.815002 # OT TIP3
188 63 2 0.417000 3.109000 5.272000 72.097000 # HT TIP3
189 63 2 0.417000 3.817000 3.973000 72.327003 # HT TIP3
190 64 3 -0.834000 3.276000 7.465000 82.324997 # OT TIP3
191 64 2 0.417000 2.772000 6.991000 82.963997 # HT TIP3
192 64 2 0.417000 3.604000 8.288000 82.752998 # HT TIP3
193 65 3 -0.834000 2.891000 5.044000 95.612999 # OT TIP3
194 65 2 0.417000 2.260000 4.520000 96.150002 # HT TIP3
195 65 2 0.417000 2.303000 5.510000 95.019997 # HT TIP3
196 66 3 -0.834000 1.840000 8.265000 91.662003 # OT TIP3
197 66 2 0.417000 1.680000 8.044000 90.747002 # HT TIP3
198 66 2 0.417000 1.834000 9.211000 91.733002 # HT TIP3
199 67 3 -0.834000 0.737000 17.902000 100.089996 # OT TIP3
200 67 2 0.417000 0.459000 18.792000 100.351997 # HT TIP3
201 67 2 0.417000 0.866000 17.948999 99.147003 # HT TIP3
202 68 3 -0.834000 9.978000 7.875000 87.947998 # OT TIP3
203 68 2 0.417000 9.589000 7.626000 88.845001 # HT TIP3
204 68 2 0.417000 10.436000 8.656000 88.186996 # HT TIP3
205 69 3 -0.834000 9.927000 4.185000 95.805000 # OT TIP3
206 69 2 0.417000 9.056000 3.935000 96.202003 # HT TIP3
207 69 2 0.417000 10.360000 3.325000 95.665001 # HT TIP3
208 70 3 -0.834000 2.378000 5.806000 79.252998 # OT TIP3
209 70 2 0.417000 2.157000 6.161000 80.098999 # HT TIP3
210 70 2 0.417000 3.301000 6.032000 79.125999 # HT TIP3
211 71 3 -0.834000 6.382000 22.271000 65.319000 # OT TIP3
212 71 2 0.417000 5.550000 22.035000 64.847000 # HT TIP3
213 71 2 0.417000 6.859000 21.472000 65.192001 # HT TIP3
214 72 3 -0.834000 4.017000 3.905000 82.417999 # OT TIP3
215 72 2 0.417000 3.142000 4.042000 82.132004 # HT TIP3
216 72 2 0.417000 4.582000 4.727000 82.294998 # HT TIP3
217 73 3 -0.834000 2.344000 20.472000 84.630997 # OT TIP3
218 73 2 0.417000 2.932000 20.820999 83.945000 # HT TIP3
219 73 2 0.417000 1.467000 20.548000 84.138000 # HT TIP3
220 74 3 -0.834000 20.613001 13.616000 74.066002 # OT TIP3
221 74 2 0.417000 20.739000 13.959000 73.218002 # HT TIP3
222 74 2 0.417000 19.618999 13.816000 74.250000 # HT TIP3
223 75 3 -0.834000 11.492000 5.548000 97.846001 # OT TIP3
224 75 2 0.417000 11.163000 5.204000 97.040001 # HT TIP3
225 75 2 0.417000 11.386000 6.479000 97.859001 # HT TIP3
226 76 3 -0.834000 1.787000 9.518000 87.514999 # OT TIP3
227 76 2 0.417000 2.132000 9.575000 86.646004 # HT TIP3
228 76 2 0.417000 1.860000 10.406000 87.787003 # HT TIP3
229 77 3 -0.834000 4.127000 1.870000 95.761002 # OT TIP3
230 77 2 0.417000 3.830000 2.272000 94.988998 # HT TIP3
231 77 2 0.417000 4.730000 2.562000 96.098000 # HT TIP3
232 78 3 -0.834000 14.526000 10.532000 83.137001 # OT TIP3
233 78 2 0.417000 14.162000 9.733000 83.502998 # HT TIP3
234 78 2 0.417000 14.466000 10.420000 82.194000 # HT TIP3
235 79 3 -0.834000 26.124001 16.594000 79.806999 # OT TIP3
236 79 2 0.417000 26.948000 16.864000 80.244003 # HT TIP3
237 79 2 0.417000 26.136999 17.048000 78.900002 # HT TIP3
238 80 3 -0.834000 8.876000 28.437000 68.579002 # OT TIP3
239 80 2 0.417000 9.227000 27.577000 68.358002 # HT TIP3
240 80 2 0.417000 8.790000 28.398001 69.532997 # HT TIP3
241 81 3 -0.834000 5.573000 14.804000 82.089996 # OT TIP3
242 81 2 0.417000 5.959000 15.339000 82.807999 # HT TIP3
243 81 2 0.417000 5.869000 15.413000 81.331001 # HT TIP3
244 82 3 -0.834000 16.283001 7.354000 85.780998 # OT TIP3
245 82 2 0.417000 15.640000 8.058000 85.448997 # HT TIP3
246 82 2 0.417000 15.973000 6.560000 85.378998 # HT TIP3
247 83 3 -0.834000 22.872000 18.441000 79.788002 # OT TIP3
248 83 2 0.417000 22.201000 17.864000 79.378998 # HT TIP3
249 83 2 0.417000 22.334999 18.981001 80.425003 # HT TIP3
250 84 3 -0.834000 10.105000 0.841000 102.111000 # OT TIP3
251 84 2 0.417000 9.488000 1.450000 101.630997 # HT TIP3
252 84 2 0.417000 10.632000 1.418000 102.705002 # HT TIP3
253 85 3 -0.834000 0.742000 20.646999 100.424004 # OT TIP3
254 85 2 0.417000 0.163000 21.202000 99.855003 # HT TIP3
255 85 2 0.417000 1.532000 20.410000 99.836998 # HT TIP3
256 86 3 -0.834000 5.458000 13.097000 67.588997 # OT TIP3
257 86 2 0.417000 5.673000 13.019000 66.612000 # HT TIP3
258 86 2 0.417000 4.899000 13.894000 67.656998 # HT TIP3
259 87 3 -0.834000 27.849001 9.868000 82.172997 # OT TIP3
260 87 2 0.417000 27.170000 9.720000 82.862999 # HT TIP3
261 87 2 0.417000 27.403000 10.419000 81.488998 # HT TIP3
262 88 3 -0.834000 4.552000 1.370000 83.330002 # OT TIP3
263 88 2 0.417000 4.274000 2.194000 82.953003 # HT TIP3
264 88 2 0.417000 4.235000 0.801000 82.570999 # HT TIP3
265 89 3 -0.834000 4.594000 25.266001 78.199997 # OT TIP3
266 89 2 0.417000 3.638000 25.500000 78.195999 # HT TIP3
267 89 2 0.417000 4.758000 24.896999 77.311996 # HT TIP3
268 90 3 -0.834000 10.966000 0.487000 90.664001 # OT TIP3
269 90 2 0.417000 10.835000 1.423000 90.474998 # HT TIP3
270 90 2 0.417000 10.558000 0.092000 89.883003 # HT TIP3
271 91 3 -0.834000 6.580000 12.992000 92.691002 # OT TIP3
272 91 2 0.417000 6.430000 13.886000 92.972000 # HT TIP3
273 91 2 0.417000 6.429000 12.499000 93.481003 # HT TIP3
274 92 3 -0.834000 5.160000 13.744000 70.954002 # OT TIP3
275 92 2 0.417000 6.048000 13.422000 71.207001 # HT TIP3
276 92 2 0.417000 5.008000 14.493000 71.528000 # HT TIP3
277 93 3 -0.834000 1.488000 7.754000 94.837997 # OT TIP3
278 93 2 0.417000 0.778000 8.323000 95.195000 # HT TIP3
279 93 2 0.417000 1.543000 8.043000 93.920998 # HT TIP3
280 94 3 -0.834000 3.348000 27.087000 107.369003 # OT TIP3
281 94 2 0.417000 3.847000 27.254999 108.224998 # HT TIP3
282 94 2 0.417000 2.813000 26.334999 107.661003 # HT TIP3
283 95 3 -0.834000 10.390000 6.386000 81.828003 # OT TIP3
284 95 2 0.417000 10.688000 6.484000 82.731003 # HT TIP3
285 95 2 0.417000 9.844000 5.589000 81.920998 # HT TIP3
286 96 3 -0.834000 1.678000 21.941999 64.035004 # OT TIP3
287 96 2 0.417000 1.272000 21.280001 64.592003 # HT TIP3
288 96 2 0.417000 1.498000 22.809000 64.492996 # HT TIP3
289 97 3 -0.834000 9.630000 21.547001 66.000000 # OT TIP3
290 97 2 0.417000 9.601000 22.471001 65.642998 # HT TIP3
291 97 2 0.417000 9.287000 20.954000 65.311996 # HT TIP3
292 98 3 -0.834000 2.344000 10.571000 65.624001 # OT TIP3
293 98 2 0.417000 2.122000 10.753000 66.553001 # HT TIP3
294 98 2 0.417000 2.947000 9.791000 65.616997 # HT TIP3
295 99 3 -0.834000 2.582000 27.635000 85.063004 # OT TIP3
296 99 2 0.417000 1.826000 27.334000 85.610001 # HT TIP3
297 99 2 0.417000 2.141000 27.872999 84.226997 # HT TIP3
298 100 3 -0.834000 2.619000 28.047001 100.820000 # OT TIP3
299 100 2 0.417000 2.469000 28.993999 100.611000 # HT TIP3
300 100 2 0.417000 1.971000 27.756001 101.500000 # HT TIP3
301 101 3 -0.834000 8.123000 7.890000 97.105003 # OT TIP3
302 101 2 0.417000 8.283000 7.539000 98.039001 # HT TIP3
303 101 2 0.417000 8.729000 8.634000 97.000000 # HT TIP3
304 102 3 -0.834000 13.385000 9.769000 92.453003 # OT TIP3
305 102 2 0.417000 13.856000 10.391000 93.061996 # HT TIP3
306 102 2 0.417000 12.599000 9.513000 92.964996 # HT TIP3
307 103 3 -0.834000 0.823000 23.667999 65.888000 # OT TIP3
308 103 2 0.417000 1.636000 23.316000 66.339996 # HT TIP3
309 103 2 0.417000 0.253000 23.978001 66.639999 # HT TIP3
310 104 3 -0.834000 2.083000 28.332001 70.325996 # OT TIP3
311 104 2 0.417000 1.558000 28.514000 71.114998 # HT TIP3
312 104 2 0.417000 1.496000 27.737000 69.810997 # HT TIP3
313 105 3 -0.834000 13.220000 24.493999 76.092003 # OT TIP3
314 105 2 0.417000 12.891000 25.382999 76.287003 # HT TIP3
315 105 2 0.417000 13.056000 23.917999 76.852997 # HT TIP3
316 106 3 -0.834000 0.995000 28.021000 73.014999 # OT TIP3
317 106 2 0.417000 0.013000 27.981001 73.042999 # HT TIP3
318 106 2 0.417000 1.298000 27.118999 73.263000 # HT TIP3
319 107 3 -0.834000 2.710000 6.185000 70.540001 # OT TIP3
320 107 2 0.417000 2.467000 6.236000 69.560997 # HT TIP3
321 107 2 0.417000 3.410000 6.855000 70.580002 # HT TIP3
322 108 3 -0.834000 6.911000 19.458000 80.334999 # OT TIP3
323 108 2 0.417000 7.517000 20.118000 79.957001 # HT TIP3
324 108 2 0.417000 6.315000 19.136000 79.587997 # HT TIP3
325 109 3 -0.834000 13.336000 24.461000 99.785004 # OT TIP3
326 109 2 0.417000 13.239000 25.164000 100.433998 # HT TIP3
327 109 2 0.417000 13.693000 23.712999 100.244003 # HT TIP3
328 110 3 -0.834000 23.124001 20.629000 108.624001 # OT TIP3
329 110 2 0.417000 22.110001 20.586000 108.371002 # HT TIP3
330 110 2 0.417000 23.295000 19.663000 108.829002 # HT TIP3
331 111 3 -0.834000 5.179000 20.889999 90.387001 # OT TIP3
332 111 2 0.417000 4.618000 21.606001 90.646004 # HT TIP3
333 111 2 0.417000 5.196000 20.211000 91.107002 # HT TIP3
334 112 3 -0.834000 16.191999 22.403000 66.781998 # OT TIP3
335 112 2 0.417000 16.363001 22.881001 67.622002 # HT TIP3
336 112 2 0.417000 16.427000 23.065001 66.085999 # HT TIP3
337 113 3 -0.834000 13.540000 22.219999 65.748001 # OT TIP3
338 113 2 0.417000 12.965000 22.475000 66.461998 # HT TIP3
339 113 2 0.417000 14.428000 22.403999 66.073997 # HT TIP3
340 114 3 -0.834000 9.525000 28.541000 93.151001 # OT TIP3
341 114 2 0.417000 10.415000 28.417999 92.685997 # HT TIP3
342 114 2 0.417000 9.197000 27.671000 93.238998 # HT TIP3
343 115 3 -0.834000 8.389000 18.165001 93.991997 # OT TIP3
344 115 2 0.417000 7.968000 17.770000 93.209999 # HT TIP3
345 115 2 0.417000 8.417000 17.451000 94.640999 # HT TIP3
346 116 3 -0.834000 10.438000 21.237000 104.009003 # OT TIP3
347 116 2 0.417000 10.846000 20.740000 103.267998 # HT TIP3
348 116 2 0.417000 9.577000 21.480000 103.711998 # HT TIP3
349 117 3 -0.834000 15.326000 26.968000 94.402000 # OT TIP3
350 117 2 0.417000 14.453000 26.736000 93.928001 # HT TIP3
351 117 2 0.417000 15.068000 27.620001 95.032997 # HT TIP3
352 118 3 -0.834000 3.271000 18.974001 106.186996 # OT TIP3
353 118 2 0.417000 3.458000 18.073000 105.987999 # HT TIP3
354 118 2 0.417000 3.320000 19.429001 105.313004 # HT TIP3
355 119 3 -0.834000 8.181000 23.465000 70.637001 # OT TIP3
356 119 2 0.417000 9.007000 23.937000 70.703003 # HT TIP3
357 119 2 0.417000 7.517000 24.117001 70.311996 # HT TIP3
358 120 3 -0.834000 10.929000 14.750000 68.718002 # OT TIP3
359 120 2 0.417000 10.050000 14.541000 68.407997 # HT TIP3
360 120 2 0.417000 11.401000 13.879000 68.717003 # HT TIP3
361 121 3 -0.834000 19.659000 25.552000 80.448997 # OT TIP3
362 121 2 0.417000 20.181999 26.346001 80.499001 # HT TIP3
363 121 2 0.417000 18.733999 25.858000 80.380997 # HT TIP3
364 122 3 -0.834000 2.086000 25.452000 81.194000 # OT TIP3
365 122 2 0.417000 2.174000 25.923000 80.393997 # HT TIP3
366 122 2 0.417000 1.272000 25.868999 81.603996 # HT TIP3
367 123 3 -0.834000 23.330999 21.618999 81.069000 # OT TIP3
368 123 2 0.417000 23.136999 22.516001 81.456001 # HT TIP3
369 123 2 0.417000 22.663000 20.985001 81.449997 # HT TIP3
370 124 3 -0.834000 16.507000 17.170000 84.005997 # OT TIP3
371 124 2 0.417000 17.226000 17.006001 83.294998 # HT TIP3
372 124 2 0.417000 16.030001 16.297001 84.082001 # HT TIP3
373 125 3 -0.834000 3.790000 23.318001 89.067001 # OT TIP3
374 125 2 0.417000 4.111000 23.684000 89.901001 # HT TIP3
375 125 2 0.417000 2.835000 23.195999 89.248001 # HT TIP3
376 126 3 -0.834000 0.747000 4.469000 73.579002 # OT TIP3
377 126 2 0.417000 0.426000 3.568000 73.338997 # HT TIP3
378 126 2 0.417000 1.505000 4.585000 72.989998 # HT TIP3
379 127 3 -0.834000 15.721000 2.984000 108.033997 # OT TIP3
380 127 2 0.417000 15.917000 3.285000 108.986000 # HT TIP3
381 127 2 0.417000 14.948000 3.470000 107.776001 # HT TIP3
382 128 3 -0.834000 5.356000 5.388000 79.045998 # OT TIP3
383 128 2 0.417000 5.884000 6.064000 79.460999 # HT TIP3
384 128 2 0.417000 5.592000 4.622000 79.537003 # HT TIP3
385 129 3 -0.834000 1.889000 5.585000 92.541000 # OT TIP3
386 129 2 0.417000 1.938000 6.502000 92.263000 # HT TIP3
387 129 2 0.417000 1.015000 5.312000 92.144997 # HT TIP3
388 130 3 -0.834000 2.681000 2.548000 104.152000 # OT TIP3
389 130 2 0.417000 2.598000 1.590000 103.994003 # HT TIP3
390 130 2 0.417000 3.370000 2.657000 104.870003 # HT TIP3
391 131 3 -0.834000 10.704000 6.721000 78.883003 # OT TIP3
392 131 2 0.417000 10.901000 6.912000 79.835999 # HT TIP3
393 131 2 0.417000 10.127000 5.972000 78.998001 # HT TIP3
394 132 3 -0.834000 26.896999 12.094000 63.679001 # OT TIP3
395 132 2 0.417000 26.514000 11.280000 63.304001 # HT TIP3
396 132 2 0.417000 27.875000 11.927000 63.553001 # HT TIP3
397 133 3 -0.834000 2.189000 1.706000 87.877998 # OT TIP3
398 133 2 0.417000 1.464000 1.091000 87.709999 # HT TIP3
399 133 2 0.417000 2.125000 1.805000 88.900002 # HT TIP3
400 134 3 -0.834000 11.763000 19.614000 72.958000 # OT TIP3
401 134 2 0.417000 12.279000 20.405001 72.865997 # HT TIP3
402 134 2 0.417000 12.435000 18.905001 72.901001 # HT TIP3
403 135 3 -0.834000 7.864000 10.603000 91.949997 # OT TIP3
404 135 2 0.417000 7.469000 11.275000 92.507004 # HT TIP3
405 135 2 0.417000 7.154000 9.992000 91.782997 # HT TIP3
406 136 3 -0.834000 4.647000 6.632000 100.533997 # OT TIP3
407 136 2 0.417000 3.842000 6.176000 100.197998 # HT TIP3
408 136 2 0.417000 4.630000 7.486000 100.089996 # HT TIP3
409 137 3 -0.834000 10.893000 8.416000 93.315002 # OT TIP3
410 137 2 0.417000 10.739000 7.787000 92.538002 # HT TIP3
411 137 2 0.417000 10.361000 7.971000 93.973999 # HT TIP3
412 138 3 -0.834000 7.085000 12.323000 107.901001 # OT TIP3
413 138 2 0.417000 7.028000 11.515000 108.480003 # HT TIP3
414 138 2 0.417000 7.997000 12.362000 107.642998 # HT TIP3
415 139 3 -0.834000 7.027000 2.224000 76.411003 # OT TIP3
416 139 2 0.417000 6.185000 2.801000 76.535004 # HT TIP3
417 139 2 0.417000 6.692000 1.403000 76.741997 # HT TIP3
418 140 3 -0.834000 17.812000 5.771000 68.875999 # OT TIP3
419 140 2 0.417000 17.219999 6.316000 68.379997 # HT TIP3
420 140 2 0.417000 17.551001 4.869000 68.668999 # HT TIP3
421 141 3 -0.834000 4.028000 7.699000 75.776001 # OT TIP3
422 141 2 0.417000 4.577000 7.193000 75.138000 # HT TIP3
423 141 2 0.417000 3.171000 7.320000 75.543999 # HT TIP3
424 142 3 -0.834000 11.049000 9.880000 89.882004 # OT TIP3
425 142 2 0.417000 11.395000 9.481000 90.654999 # HT TIP3
426 142 2 0.417000 11.905000 10.095000 89.383003 # HT TIP3
427 143 3 -0.834000 22.132999 2.886000 82.843002 # OT TIP3
428 143 2 0.417000 22.929001 2.596000 83.262001 # HT TIP3
429 143 2 0.417000 21.486000 2.828000 83.560997 # HT TIP3
430 144 3 -0.834000 20.975000 7.300000 93.575996 # OT TIP3
431 144 2 0.417000 21.781000 6.730000 93.418999 # HT TIP3
432 144 2 0.417000 21.289000 7.819000 94.305000 # HT TIP3
433 145 3 -0.834000 12.493000 9.451000 65.214996 # OT TIP3
434 145 2 0.417000 12.908000 9.840000 65.987000 # HT TIP3
435 145 2 0.417000 12.982000 8.641000 65.039001 # HT TIP3
436 146 3 -0.834000 11.177000 9.610000 70.928001 # OT TIP3
437 146 2 0.417000 10.443000 10.172000 71.053001 # HT TIP3
438 146 2 0.417000 10.866000 8.788000 71.297997 # HT TIP3
439 147 3 -0.834000 1.838000 3.206000 78.398003 # OT TIP3
440 147 2 0.417000 2.201000 4.081000 78.544998 # HT TIP3
441 147 2 0.417000 2.117000 2.999000 77.421997 # HT TIP3
442 148 3 -0.834000 16.132999 12.593000 79.907997 # OT TIP3
443 148 2 0.417000 15.352000 12.769000 79.390999 # HT TIP3
444 148 2 0.417000 15.887000 11.876000 80.511002 # HT TIP3
445 149 3 -0.834000 1.899000 11.624000 80.892998 # OT TIP3
446 149 2 0.417000 1.139000 11.678000 80.305000 # HT TIP3
447 149 2 0.417000 2.258000 12.535000 80.855003 # HT TIP3
448 150 3 -0.834000 9.220000 13.904000 80.339996 # OT TIP3
449 150 2 0.417000 10.062000 14.198000 80.737999 # HT TIP3
450 150 2 0.417000 9.394000 12.999000 80.101997 # HT TIP3
451 151 3 -0.834000 3.458000 9.868000 85.418999 # OT TIP3
452 151 2 0.417000 4.398000 10.016000 85.653999 # HT TIP3
453 151 2 0.417000 3.448000 10.189000 84.495003 # HT TIP3
454 152 3 -0.834000 2.924000 4.143000 89.959000 # OT TIP3
455 152 2 0.417000 3.558000 4.546000 89.375999 # HT TIP3
456 152 2 0.417000 2.665000 4.830000 90.592003 # HT TIP3
457 153 3 -0.834000 0.750000 2.938000 96.460999 # OT TIP3
458 153 2 0.417000 0.744000 2.509000 97.315002 # HT TIP3
459 153 2 0.417000 0.391000 3.809000 96.742996 # HT TIP3
460 154 3 -0.834000 10.667000 12.434000 98.502998 # OT TIP3
461 154 2 0.417000 9.874000 12.948000 98.226997 # HT TIP3
462 154 2 0.417000 10.939000 12.945000 99.213997 # HT TIP3
463 155 3 -0.834000 18.441000 16.134001 66.839996 # OT TIP3
464 155 2 0.417000 18.610001 16.488001 65.968002 # HT TIP3
465 155 2 0.417000 19.113001 15.407000 66.960999 # HT TIP3
466 156 3 -0.834000 15.430000 3.274000 70.406998 # OT TIP3
467 156 2 0.417000 15.458000 2.741000 71.156998 # HT TIP3
468 156 2 0.417000 15.933000 2.740000 69.769997 # HT TIP3
469 157 3 -0.834000 13.134000 4.535000 69.558998 # OT TIP3
470 157 2 0.417000 12.434000 3.932000 69.938004 # HT TIP3
471 157 2 0.417000 13.959000 4.162000 69.964996 # HT TIP3
472 158 3 -0.834000 5.708000 4.426000 87.417999 # OT TIP3
473 158 2 0.417000 6.002000 4.703000 88.300003 # HT TIP3
474 158 2 0.417000 5.157000 5.168000 87.143997 # HT TIP3
475 159 3 -0.834000 16.320999 19.495001 78.870003 # OT TIP3
476 159 2 0.417000 16.959999 19.159000 78.192001 # HT TIP3
477 159 2 0.417000 16.854000 20.132000 79.388000 # HT TIP3
478 160 3 -0.834000 10.295000 14.066000 77.320000 # OT TIP3
479 160 2 0.417000 10.592000 14.067000 78.225998 # HT TIP3
480 160 2 0.417000 9.322000 14.226000 77.349998 # HT TIP3
481 161 3 -0.834000 16.007999 17.797001 74.410004 # OT TIP3
482 161 2 0.417000 16.695000 17.702000 73.683998 # HT TIP3
483 161 2 0.417000 15.186000 17.521000 73.942001 # HT TIP3
484 162 3 -0.834000 15.398000 1.552000 81.246002 # OT TIP3
485 162 2 0.417000 16.016001 1.951000 80.566002 # HT TIP3
486 162 2 0.417000 14.574000 2.011000 81.109001 # HT TIP3
487 163 3 -0.834000 3.055000 12.102000 105.695999 # OT TIP3
488 163 2 0.417000 2.634000 12.194000 106.551003 # HT TIP3
489 163 2 0.417000 2.644000 12.777000 105.190002 # HT TIP3
490 164 3 -0.834000 7.303000 15.362000 108.029999 # OT TIP3
491 164 2 0.417000 6.624000 15.812000 108.628998 # HT TIP3
492 164 2 0.417000 6.860000 14.595000 107.678001 # HT TIP3
493 165 3 -0.834000 7.830000 19.750999 64.995003 # OT TIP3
494 165 2 0.417000 7.257000 19.870001 64.247002 # HT TIP3
495 165 2 0.417000 8.329000 18.923000 64.885002 # HT TIP3
496 166 3 -0.834000 13.663000 26.431999 69.528999 # OT TIP3
497 166 2 0.417000 13.851000 26.261000 70.482002 # HT TIP3
498 166 2 0.417000 13.355000 27.375000 69.531998 # HT TIP3
499 167 3 -0.834000 15.027000 11.249000 72.806000 # OT TIP3
500 167 2 0.417000 15.636000 10.953000 72.103996 # HT TIP3
501 167 2 0.417000 14.929000 12.194000 72.544998 # HT TIP3
502 168 3 -0.834000 19.530001 19.813000 87.413002 # OT TIP3
503 168 2 0.417000 20.399000 20.250999 87.331001 # HT TIP3
504 168 2 0.417000 19.754999 18.875999 87.417999 # HT TIP3
505 169 3 -0.834000 10.274000 11.448000 83.959000 # OT TIP3
506 169 2 0.417000 10.893000 11.073000 84.653999 # HT TIP3
507 169 2 0.417000 10.344000 10.891000 83.237999 # HT TIP3
508 170 3 -0.834000 11.473000 6.075000 84.702003 # OT TIP3
509 170 2 0.417000 12.046000 5.667000 85.431000 # HT TIP3
510 170 2 0.417000 10.554000 5.939000 85.099998 # HT TIP3
511 171 3 -0.834000 8.318000 15.284000 88.150002 # OT TIP3