LAMMPS data file. CGCMM style. atom_style full generated by VMD/TopoTools v1.1 on Thu Sep 20 09:46:33 +0800 2012
 3215 atoms
 2010 bonds
 1005 angles
 0 dihedrals
 0 impropers
 4 atom types
 1 bond types
 1 angle types
 0 dihedral types
 0 improper types
 0.918000 27.918000  xlo xhi
 0.671500 27.671500  ylo yhi
 0.790501 55.790501  zlo zhi

# Pair Coeffs
#
# 1  CLA
# 2  HT
# 3  OT
# 4  SOD

# Bond Coeffs
#
# 1  

# Angle Coeffs
#
# 1  unknown

 Masses

 1 35.452999 # CLA
 2 1.007940 # HT
 3 15.999400 # OT
 4 22.989771 # SOD

 Atoms

1 1 3 -0.834000 4.668000 11.082000 16.903999 # OT TIP3
2 1 2 0.417000 4.224000 11.451000 16.101000 # HT TIP3
3 1 2 0.417000 4.092000 11.379000 17.627001 # HT TIP3
4 2 3 -0.834000 7.033000 5.876000 21.891001 # OT TIP3
5 2 2 0.417000 7.078000 6.224000 22.798000 # HT TIP3
6 2 2 0.417000 7.592000 5.088000 21.961000 # HT TIP3
7 3 3 -0.834000 5.569000 4.960000 30.886999 # OT TIP3
8 3 2 0.417000 4.959000 4.160000 30.980000 # HT TIP3
9 3 2 0.417000 4.995000 5.655000 30.422001 # HT TIP3
10 4 3 -0.834000 1.975000 15.007000 39.567001 # OT TIP3
11 4 2 0.417000 2.137000 14.263000 38.966000 # HT TIP3
12 4 2 0.417000 1.619000 14.539000 40.360001 # HT TIP3
13 5 3 -0.834000 7.387000 1.374000 51.855999 # OT TIP3
14 5 2 0.417000 7.306000 1.100000 50.924000 # HT TIP3
15 5 2 0.417000 8.156000 2.026000 51.773998 # HT TIP3
16 6 3 -0.834000 1.924000 5.249000 51.230999 # OT TIP3
17 6 2 0.417000 2.353000 4.714000 51.991001 # HT TIP3
18 6 2 0.417000 1.660000 6.086000 51.716999 # HT TIP3
19 7 3 -0.834000 6.186000 17.695999 13.072000 # OT TIP3
20 7 2 0.417000 7.083000 17.979000 12.816000 # HT TIP3
21 7 2 0.417000 6.337000 16.832001 13.490000 # HT TIP3
22 8 3 -0.834000 15.437000 6.794000 31.556000 # OT TIP3
23 8 2 0.417000 14.524000 6.319000 31.532000 # HT TIP3
24 8 2 0.417000 15.984000 6.113000 31.973000 # HT TIP3
25 9 3 -0.834000 9.324000 14.811000 22.332001 # OT TIP3
26 9 2 0.417000 9.633000 14.348000 23.112000 # HT TIP3
27 9 2 0.417000 9.506000 14.116000 21.645000 # HT TIP3
28 10 3 -0.834000 12.462000 27.025999 32.373001 # OT TIP3
29 10 2 0.417000 12.386000 27.695000 33.076000 # HT TIP3
30 10 2 0.417000 11.619000 27.080000 31.936001 # HT TIP3
31 11 3 -0.834000 9.437000 3.169000 52.651001 # OT TIP3
32 11 2 0.417000 10.039000 3.400000 51.893002 # HT TIP3
33 11 2 0.417000 9.271000 3.912000 53.144001 # HT TIP3
34 12 3 -0.834000 4.786000 17.318001 2.310000 # OT TIP3
35 12 2 0.417000 4.781000 16.388000 2.196000 # HT TIP3
36 12 2 0.417000 5.528000 17.580000 1.781000 # HT TIP3
37 13 3 -0.834000 7.205000 7.991000 19.441999 # OT TIP3
38 13 2 0.417000 7.782000 8.347000 20.152000 # HT TIP3
39 13 2 0.417000 6.309000 8.062000 19.799999 # HT TIP3
40 14 3 -0.834000 3.750000 9.844000 10.629000 # OT TIP3
41 14 2 0.417000 3.110000 9.290000 10.998000 # HT TIP3
42 14 2 0.417000 3.164000 10.245000 9.962000 # HT TIP3
43 15 3 -0.834000 4.935000 17.195000 23.108999 # OT TIP3
44 15 2 0.417000 5.870000 17.034000 22.985001 # HT TIP3
45 15 2 0.417000 4.655000 16.367001 23.580999 # HT TIP3
46 16 3 -0.834000 3.991000 12.162000 28.860001 # OT TIP3
47 16 2 0.417000 4.594000 11.968000 28.129000 # HT TIP3
48 16 2 0.417000 3.414000 12.775000 28.430000 # HT TIP3
49 17 3 -0.834000 5.240000 8.037000 28.080999 # OT TIP3
50 17 2 0.417000 5.656000 8.831000 27.658001 # HT TIP3
51 17 2 0.417000 4.786000 8.428000 28.812000 # HT TIP3
52 18 3 -0.834000 8.172000 7.999000 39.581001 # OT TIP3
53 18 2 0.417000 8.040000 8.550000 40.327000 # HT TIP3
54 18 2 0.417000 7.244000 7.756000 39.263000 # HT TIP3
55 19 3 -0.834000 11.674000 9.909000 5.986000 # OT TIP3
56 19 2 0.417000 11.998000 9.871000 6.932000 # HT TIP3
57 19 2 0.417000 10.748000 10.270000 6.075000 # HT TIP3
58 20 3 -0.834000 1.002000 6.667000 15.591000 # OT TIP3
59 20 2 0.417000 1.483000 6.990000 14.830000 # HT TIP3
60 20 2 0.417000 1.608000 6.781000 16.347000 # HT TIP3
61 21 3 -0.834000 8.964000 7.107000 30.452999 # OT TIP3
62 21 2 0.417000 9.242000 6.206000 30.599001 # HT TIP3
63 21 2 0.417000 9.422000 7.545000 31.237000 # HT TIP3
64 22 3 -0.834000 25.177000 15.271000 39.125999 # OT TIP3
65 22 2 0.417000 24.534000 14.942000 38.459000 # HT TIP3
66 22 2 0.417000 26.062000 15.082000 38.681999 # HT TIP3
67 23 3 -0.834000 5.821000 21.603001 12.239000 # OT TIP3
68 23 2 0.417000 6.466000 21.782000 12.963000 # HT TIP3
69 23 2 0.417000 6.384000 21.914000 11.456000 # HT TIP3
70 24 3 -0.834000 16.021999 21.855000 13.831000 # OT TIP3
71 24 2 0.417000 15.222000 21.809000 14.292000 # HT TIP3
72 24 2 0.417000 15.673000 22.056999 12.918000 # HT TIP3
73 25 3 -0.834000 2.339000 4.782000 23.813999 # OT TIP3
74 25 2 0.417000 1.839000 4.425000 23.087000 # HT TIP3
75 25 2 0.417000 2.775000 4.077000 24.138000 # HT TIP3
76 26 3 -0.834000 1.485000 16.136999 23.476000 # OT TIP3
77 26 2 0.417000 1.644000 16.424999 24.349001 # HT TIP3
78 26 2 0.417000 1.312000 16.961000 22.975000 # HT TIP3
79 27 3 -0.834000 14.143000 14.795000 34.479000 # OT TIP3
80 27 2 0.417000 13.931000 14.553000 35.355999 # HT TIP3
81 27 2 0.417000 14.523000 15.662000 34.519001 # HT TIP3
82 28 3 -0.834000 13.421000 21.594999 32.342999 # OT TIP3
83 28 2 0.417000 13.330000 21.621000 33.303001 # HT TIP3
84 28 2 0.417000 13.281000 22.525999 32.063000 # HT TIP3
85 29 3 -0.834000 10.955000 18.632999 42.207001 # OT TIP3
86 29 2 0.417000 10.041000 18.861000 42.367001 # HT TIP3
87 29 2 0.417000 11.205000 17.962999 42.948002 # HT TIP3
88 30 3 -0.834000 6.608000 24.917999 13.959000 # OT TIP3
89 30 2 0.417000 5.840000 24.622000 13.545000 # HT TIP3
90 30 2 0.417000 7.037000 25.336000 13.208000 # HT TIP3
91 31 3 -0.834000 11.426000 8.604000 3.404000 # OT TIP3
92 31 2 0.417000 11.761000 9.401000 2.994000 # HT TIP3
93 31 2 0.417000 11.248000 8.889000 4.308000 # HT TIP3
94 32 3 -0.834000 9.569000 26.684000 13.211000 # OT TIP3
95 32 2 0.417000 10.123000 26.542000 14.015000 # HT TIP3
96 32 2 0.417000 9.805000 27.594999 12.927000 # HT TIP3
97 33 3 -0.834000 5.269000 23.752001 17.264999 # OT TIP3
98 33 2 0.417000 5.149000 24.680000 16.888000 # HT TIP3
99 33 2 0.417000 6.061000 23.796000 17.775999 # HT TIP3
100 34 3 -0.834000 4.599000 14.689000 24.583000 # OT TIP3
101 34 2 0.417000 4.430000 13.876000 25.062000 # HT TIP3
102 34 2 0.417000 5.561000 14.769000 24.660999 # HT TIP3
103 35 3 -0.834000 20.952000 2.961000 27.164000 # OT TIP3
104 35 2 0.417000 21.414000 2.079000 27.079000 # HT TIP3
105 35 2 0.417000 21.667000 3.653000 27.013000 # HT TIP3
106 36 3 -0.834000 5.078000 21.804001 51.265999 # OT TIP3
107 36 2 0.417000 5.502000 22.108999 52.061001 # HT TIP3
108 36 2 0.417000 4.393000 21.089001 51.598000 # HT TIP3
109 37 3 -0.834000 24.517000 12.039000 43.784000 # OT TIP3
110 37 2 0.417000 23.687000 11.572000 43.894001 # HT TIP3
111 37 2 0.417000 25.010000 11.506000 44.361000 # HT TIP3
112 38 3 -0.834000 11.926000 6.365000 2.018000 # OT TIP3
113 38 2 0.417000 12.138000 5.769000 2.754000 # HT TIP3
114 38 2 0.417000 11.657000 7.212000 2.493000 # HT TIP3
115 39 3 -0.834000 9.647000 5.314000 20.278000 # OT TIP3
116 39 2 0.417000 8.964000 4.611000 20.326000 # HT TIP3
117 39 2 0.417000 9.043000 6.064000 20.153000 # HT TIP3
118 40 3 -0.834000 9.381000 18.319000 24.275000 # OT TIP3
119 40 2 0.417000 8.516000 18.340000 24.695000 # HT TIP3
120 40 2 0.417000 9.431000 19.263000 24.009001 # HT TIP3
121 41 3 -0.834000 5.342000 12.388000 26.271000 # OT TIP3
122 41 2 0.417000 5.842000 11.697000 26.677999 # HT TIP3
123 41 2 0.417000 5.903000 13.148000 26.577999 # HT TIP3
124 42 3 -0.834000 2.670000 16.674999 30.166000 # OT TIP3
125 42 2 0.417000 3.120000 16.950001 30.974001 # HT TIP3
126 42 2 0.417000 1.763000 16.517000 30.468000 # HT TIP3
127 43 3 -0.834000 1.802000 26.084000 6.523000 # OT TIP3
128 43 2 0.417000 1.579000 27.065001 6.505000 # HT TIP3
129 43 2 0.417000 2.795000 26.163000 6.445000 # HT TIP3
130 44 3 -0.834000 5.299000 18.774000 8.169000 # OT TIP3
131 44 2 0.417000 4.303000 18.802999 8.322000 # HT TIP3
132 44 2 0.417000 5.533000 19.754999 7.924000 # HT TIP3
133 45 3 -0.834000 9.892000 13.977000 6.321000 # OT TIP3
134 45 2 0.417000 9.119000 13.478000 6.443000 # HT TIP3
135 45 2 0.417000 10.342000 13.557000 5.536000 # HT TIP3
136 46 3 -0.834000 3.708000 21.969000 25.504000 # OT TIP3
137 46 2 0.417000 3.589000 21.945000 24.556000 # HT TIP3
138 46 2 0.417000 4.123000 22.834999 25.549000 # HT TIP3
139 47 3 -0.834000 3.428000 13.731000 31.487000 # OT TIP3
140 47 2 0.417000 3.719000 13.073000 30.830000 # HT TIP3
141 47 2 0.417000 3.582000 14.542000 31.007999 # HT TIP3
142 48 3 -0.834000 3.174000 19.468000 3.212000 # OT TIP3
143 48 2 0.417000 3.632000 18.628000 3.203000 # HT TIP3
144 48 2 0.417000 3.931000 20.120001 3.281000 # HT TIP3
145 49 3 -0.834000 6.048000 10.046000 37.577999 # OT TIP3
146 49 2 0.417000 6.064000 10.889000 38.058998 # HT TIP3
147 49 2 0.417000 5.622000 10.224000 36.743000 # HT TIP3
148 50 3 -0.834000 19.870001 22.459999 29.971001 # OT TIP3
149 50 2 0.417000 18.903000 22.288000 29.721001 # HT TIP3
150 50 2 0.417000 20.073999 21.691000 30.591000 # HT TIP3
151 51 3 -0.834000 3.129000 22.440001 46.619999 # OT TIP3
152 51 2 0.417000 3.529000 23.283001 46.910999 # HT TIP3
153 51 2 0.417000 2.390000 22.409000 47.234001 # HT TIP3
154 52 3 -0.834000 13.265000 22.885000 52.886002 # OT TIP3
155 52 2 0.417000 13.653000 22.127001 52.368999 # HT TIP3
156 52 2 0.417000 13.964000 23.547001 52.865002 # HT TIP3
157 53 3 -0.834000 14.612000 18.680000 19.622000 # OT TIP3
158 53 2 0.417000 14.744000 18.414000 20.507999 # HT TIP3
159 53 2 0.417000 15.526000 18.830999 19.347000 # HT TIP3
160 54 3 -0.834000 2.287000 25.132000 24.737000 # OT TIP3
161 54 2 0.417000 2.235000 24.924000 25.731001 # HT TIP3
162 54 2 0.417000 3.088000 25.709000 24.639000 # HT TIP3
163 55 3 -0.834000 2.437000 25.290001 55.455002 # OT TIP3
164 55 2 0.417000 1.676000 25.666000 54.928001 # HT TIP3
165 55 2 0.417000 3.047000 25.115999 54.792999 # HT TIP3
166 56 3 -0.834000 10.339000 7.738000 32.901001 # OT TIP3
167 56 2 0.417000 9.904000 8.236000 33.633999 # HT TIP3
168 56 2 0.417000 10.404000 6.838000 33.222000 # HT TIP3
169 57 3 -0.834000 16.414000 7.569000 3.501000 # OT TIP3
170 57 2 0.417000 17.224001 7.858000 3.128000 # HT TIP3
171 57 2 0.417000 15.808000 7.700000 2.671000 # HT TIP3
172 58 3 -0.834000 12.796000 27.122000 51.287998 # OT TIP3
173 58 2 0.417000 12.863000 27.291000 50.362999 # HT TIP3
174 58 2 0.417000 12.019000 26.507000 51.334000 # HT TIP3
175 59 3 -0.834000 10.935000 13.876000 11.191000 # OT TIP3
176 59 2 0.417000 10.709000 13.098000 10.634000 # HT TIP3
177 59 2 0.417000 10.472000 13.766000 12.018000 # HT TIP3
178 60 3 -0.834000 10.957000 15.780000 49.733002 # OT TIP3
179 60 2 0.417000 11.058000 15.175000 48.972000 # HT TIP3
180 60 2 0.417000 10.107000 16.195999 49.518002 # HT TIP3
181 61 3 -0.834000 2.924000 3.977000 53.563000 # OT TIP3
182 61 2 0.417000 2.963000 4.498000 54.379002 # HT TIP3
183 61 2 0.417000 2.533000 3.126000 53.861000 # HT TIP3
184 62 3 -0.834000 14.891000 2.919000 3.992000 # OT TIP3
185 62 2 0.417000 15.198000 3.681000 4.422000 # HT TIP3
186 62 2 0.417000 14.212000 2.577000 4.578000 # HT TIP3
187 63 3 -0.834000 9.823000 11.581000 9.827000 # OT TIP3
188 63 2 0.417000 9.183000 11.753000 9.148000 # HT TIP3
189 63 2 0.417000 9.389000 11.061000 10.534000 # HT TIP3
190 64 3 -0.834000 10.078000 12.967000 13.734000 # OT TIP3
191 64 2 0.417000 9.228000 12.561000 13.993000 # HT TIP3
192 64 2 0.417000 10.512000 13.194000 14.560000 # HT TIP3
193 65 3 -0.834000 9.369000 18.158001 49.436001 # OT TIP3
194 65 2 0.417000 8.983000 18.021000 48.575001 # HT TIP3
195 65 2 0.417000 8.764000 18.888000 49.785000 # HT TIP3
196 66 3 -0.834000 11.282000 1.640000 3.053000 # OT TIP3
197 66 2 0.417000 11.367000 1.959000 4.016000 # HT TIP3
198 66 2 0.417000 10.743000 2.323000 2.667000 # HT TIP3
199 67 3 -0.834000 5.618000 9.125000 8.777000 # OT TIP3
200 67 2 0.417000 6.405000 8.919000 9.314000 # HT TIP3
201 67 2 0.417000 5.002000 9.458000 9.422000 # HT TIP3
202 68 3 -0.834000 4.403000 5.687000 10.815000 # OT TIP3
203 68 2 0.417000 4.109000 6.272000 10.097000 # HT TIP3
204 68 2 0.417000 4.817000 4.973000 10.327000 # HT TIP3
205 69 3 -0.834000 4.276000 8.465000 20.325001 # OT TIP3
206 69 2 0.417000 3.772000 7.991000 20.964001 # HT TIP3
207 69 2 0.417000 4.604000 9.288000 20.753000 # HT TIP3
208 70 3 -0.834000 3.891000 6.044000 33.612999 # OT TIP3
209 70 2 0.417000 3.260000 5.520000 34.150002 # HT TIP3
210 70 2 0.417000 3.303000 6.510000 33.020000 # HT TIP3
211 71 3 -0.834000 2.840000 9.265000 29.662001 # OT TIP3
212 71 2 0.417000 2.680000 9.044000 28.747000 # HT TIP3
213 71 2 0.417000 2.834000 10.211000 29.733000 # HT TIP3
214 72 3 -0.834000 10.978000 8.875000 25.948000 # OT TIP3
215 72 2 0.417000 10.589000 8.626000 26.844999 # HT TIP3
216 72 2 0.417000 11.436000 9.656000 26.187000 # HT TIP3
217 73 3 -0.834000 21.475000 19.162001 54.736000 # OT TIP3
218 73 2 0.417000 21.441999 20.184000 54.542000 # HT TIP3
219 73 2 0.417000 20.841000 18.757000 54.112999 # HT TIP3
220 74 3 -0.834000 4.119000 11.325000 14.158000 # OT TIP3
221 74 2 0.417000 4.598000 11.900000 13.512000 # HT TIP3
222 74 2 0.417000 4.440000 10.430000 13.962000 # HT TIP3
223 75 3 -0.834000 3.378000 6.806000 17.253000 # OT TIP3
224 75 2 0.417000 3.157000 7.161000 18.099001 # HT TIP3
225 75 2 0.417000 4.301000 7.032000 17.125999 # HT TIP3
226 76 3 -0.834000 7.382000 23.271000 3.319000 # OT TIP3
227 76 2 0.417000 6.550000 23.035000 2.847000 # HT TIP3
228 76 2 0.417000 7.859000 22.472000 3.192000 # HT TIP3
229 77 3 -0.834000 5.017000 4.905000 20.417999 # OT TIP3
230 77 2 0.417000 4.142000 5.042000 20.132000 # HT TIP3
231 77 2 0.417000 5.582000 5.727000 20.295000 # HT TIP3
232 78 3 -0.834000 3.344000 21.472000 22.631001 # OT TIP3
233 78 2 0.417000 3.932000 21.820999 21.945000 # HT TIP3
234 78 2 0.417000 2.467000 21.548000 22.138000 # HT TIP3
235 79 3 -0.834000 21.613001 14.616000 12.066000 # OT TIP3
236 79 2 0.417000 21.739000 14.959000 11.218000 # HT TIP3
237 79 2 0.417000 20.618999 14.816000 12.250000 # HT TIP3
238 80 3 -0.834000 2.787000 10.518000 25.514999 # OT TIP3
239 80 2 0.417000 3.132000 10.575000 24.646000 # HT TIP3
240 80 2 0.417000 2.860000 11.406000 25.787001 # HT TIP3
241 81 3 -0.834000 5.127000 2.870000 33.761002 # OT TIP3
242 81 2 0.417000 4.830000 3.272000 32.988998 # HT TIP3
243 81 2 0.417000 5.730000 3.562000 34.098000 # HT TIP3
244 82 3 -0.834000 15.526000 11.532000 21.136999 # OT TIP3
245 82 2 0.417000 15.162000 10.733000 21.503000 # HT TIP3
246 82 2 0.417000 15.466000 11.420000 20.194000 # HT TIP3
247 83 3 -0.834000 27.124001 17.594000 17.806999 # OT TIP3
248 83 2 0.417000 27.948000 17.864000 18.243999 # HT TIP3
249 83 2 0.417000 27.136999 18.048000 16.900000 # HT TIP3
250 84 3 -0.834000 6.573000 15.804000 20.090000 # OT TIP3
251 84 2 0.417000 6.959000 16.339001 20.808001 # HT TIP3
252 84 2 0.417000 6.869000 16.413000 19.330999 # HT TIP3
253 85 3 -0.834000 17.283001 8.354000 23.781000 # OT TIP3
254 85 2 0.417000 16.639999 9.058000 23.448999 # HT TIP3
255 85 2 0.417000 16.973000 7.560000 23.379000 # HT TIP3
256 86 3 -0.834000 23.872000 19.441000 17.788000 # OT TIP3
257 86 2 0.417000 23.201000 18.864000 17.379000 # HT TIP3
258 86 2 0.417000 23.334999 19.981001 18.424999 # HT TIP3
259 87 3 -0.834000 11.105000 1.841000 40.111000 # OT TIP3
260 87 2 0.417000 10.488000 2.450000 39.631001 # HT TIP3
261 87 2 0.417000 11.632000 2.418000 40.705002 # HT TIP3
262 88 3 -0.834000 8.947000 21.611000 54.967999 # OT TIP3
263 88 2 0.417000 8.720000 21.193001 55.773998 # HT TIP3
264 88 2 0.417000 9.544000 22.361000 55.249001 # HT TIP3
265 89 3 -0.834000 3.007000 14.254000 49.653000 # OT TIP3
266 89 2 0.417000 2.633000 14.133000 48.752998 # HT TIP3
267 89 2 0.417000 3.082000 15.201000 49.654999 # HT TIP3
268 90 3 -0.834000 6.458000 14.097000 5.589000 # OT TIP3
269 90 2 0.417000 6.673000 14.019000 4.612000 # HT TIP3
270 90 2 0.417000 5.899000 14.894000 5.657000 # HT TIP3
271 91 3 -0.834000 5.594000 26.266001 16.200001 # OT TIP3
272 91 2 0.417000 4.638000 26.500000 16.195999 # HT TIP3
273 91 2 0.417000 5.758000 25.896999 15.312000 # HT TIP3
274 92 3 -0.834000 11.966000 1.487000 28.664000 # OT TIP3
275 92 2 0.417000 11.835000 2.423000 28.475000 # HT TIP3
276 92 2 0.417000 11.558000 1.092000 27.882999 # HT TIP3
277 93 3 -0.834000 7.580000 13.992000 30.691000 # OT TIP3
278 93 2 0.417000 7.430000 14.886000 30.972000 # HT TIP3
279 93 2 0.417000 7.429000 13.499000 31.481001 # HT TIP3
280 94 3 -0.834000 6.160000 14.744000 8.954000 # OT TIP3
281 94 2 0.417000 7.048000 14.422000 9.207000 # HT TIP3
282 94 2 0.417000 6.008000 15.493000 9.528000 # HT TIP3
283 95 3 -0.834000 2.488000 8.754000 32.838001 # OT TIP3
284 95 2 0.417000 1.778000 9.323000 33.195000 # HT TIP3
285 95 2 0.417000 2.543000 9.043000 31.921000 # HT TIP3
286 96 3 -0.834000 11.390000 7.386000 19.827999 # OT TIP3
287 96 2 0.417000 11.688000 7.484000 20.731001 # HT TIP3
288 96 2 0.417000 10.844000 6.589000 19.921000 # HT TIP3
289 97 3 -0.834000 2.678000 22.941999 2.035000 # OT TIP3
290 97 2 0.417000 2.272000 22.280001 2.592000 # HT TIP3
291 97 2 0.417000 2.498000 23.809000 2.493000 # HT TIP3
292 98 3 -0.834000 10.630000 22.547001 4.000000 # OT TIP3
293 98 2 0.417000 10.601000 23.471001 3.643000 # HT TIP3
294 98 2 0.417000 10.287000 21.954000 3.312000 # HT TIP3
295 99 3 -0.834000 3.344000 11.571000 3.624000 # OT TIP3
296 99 2 0.417000 3.122000 11.753000 4.553000 # HT TIP3
297 99 2 0.417000 3.947000 10.791000 3.617000 # HT TIP3
298 100 3 -0.834000 9.123000 8.890000 35.105000 # OT TIP3
299 100 2 0.417000 9.283000 8.539000 36.039001 # HT TIP3
300 100 2 0.417000 9.729000 9.634000 35.000000 # HT TIP3
301 101 3 -0.834000 14.385000 10.769000 30.452999 # OT TIP3
302 101 2 0.417000 14.856000 11.391000 31.062000 # HT TIP3
303 101 2 0.417000 13.599000 10.513000 30.965000 # HT TIP3
304 102 3 -0.834000 6.154000 10.881000 51.096001 # OT TIP3
305 102 2 0.417000 7.020000 11.053000 50.589001 # HT TIP3
306 102 2 0.417000 5.564000 11.243000 50.410000 # HT TIP3
307 103 3 -0.834000 1.823000 24.667999 3.888000 # OT TIP3
308 103 2 0.417000 2.636000 24.316000 4.340000 # HT TIP3
309 103 2 0.417000 1.253000 24.978001 4.640000 # HT TIP3
310 104 3 -0.834000 14.354000 15.758000 49.646999 # OT TIP3
311 104 2 0.417000 15.320000 15.364000 49.687000 # HT TIP3
312 104 2 0.417000 13.830000 15.210000 50.216999 # HT TIP3
313 105 3 -0.834000 4.611000 20.641001 55.299000 # OT TIP3
314 105 2 0.417000 3.825000 21.167999 55.495998 # HT TIP3
315 105 2 0.417000 5.258000 20.972000 55.931000 # HT TIP3
316 106 3 -0.834000 17.073000 24.719999 49.915001 # OT TIP3
317 106 2 0.417000 17.726999 24.033001 50.145000 # HT TIP3
318 106 2 0.417000 17.537001 25.370001 49.361000 # HT TIP3
319 107 3 -0.834000 14.220000 25.493999 14.092000 # OT TIP3
320 107 2 0.417000 13.891000 26.382999 14.287000 # HT TIP3
321 107 2 0.417000 14.056000 24.917999 14.853000 # HT TIP3
322 108 3 -0.834000 7.911000 20.458000 18.334999 # OT TIP3
323 108 2 0.417000 8.517000 21.118000 17.957001 # HT TIP3
324 108 2 0.417000 7.315000 20.136000 17.587999 # HT TIP3
325 109 3 -0.834000 14.336000 25.461000 37.785000 # OT TIP3
326 109 2 0.417000 14.239000 26.164000 38.433998 # HT TIP3
327 109 2 0.417000 14.693000 24.712999 38.243999 # HT TIP3
328 110 3 -0.834000 3.834000 16.042999 35.374001 # OT TIP3
329 110 2 0.417000 3.279000 15.807000 36.123001 # HT TIP3
330 110 2 0.417000 4.607000 15.549000 35.502998 # HT TIP3
331 111 3 -0.834000 24.124001 21.629000 46.624001 # OT TIP3
332 111 2 0.417000 23.110001 21.586000 46.370998 # HT TIP3
333 111 2 0.417000 24.295000 20.663000 46.828999 # HT TIP3
334 112 3 -0.834000 6.179000 21.889999 28.386999 # OT TIP3
335 112 2 0.417000 5.618000 22.606001 28.646000 # HT TIP3
336 112 2 0.417000 6.196000 21.211000 29.107000 # HT TIP3
337 113 3 -0.834000 2.429000 23.410999 51.855999 # OT TIP3
338 113 2 0.417000 2.635000 24.327999 51.605999 # HT TIP3
339 113 2 0.417000 3.359000 23.051001 52.025002 # HT TIP3
340 114 3 -0.834000 17.191999 23.403000 4.782000 # OT TIP3
341 114 2 0.417000 17.363001 23.881001 5.622000 # HT TIP3
342 114 2 0.417000 17.427000 24.065001 4.086000 # HT TIP3
343 115 3 -0.834000 14.540000 23.219999 3.748000 # OT TIP3
344 115 2 0.417000 13.965000 23.475000 4.462000 # HT TIP3
345 115 2 0.417000 15.428000 23.403999 4.074000 # HT TIP3
346 116 3 -0.834000 11.438000 22.237000 42.008999 # OT TIP3
347 116 2 0.417000 11.846000 21.740000 41.268002 # HT TIP3
348 116 2 0.417000 10.577000 22.480000 41.712002 # HT TIP3
349 117 3 -0.834000 4.271000 19.974001 44.187000 # OT TIP3
350 117 2 0.417000 4.458000 19.073000 43.987999 # HT TIP3
351 117 2 0.417000 4.320000 20.429001 43.313000 # HT TIP3
352 118 3 -0.834000 9.181000 24.465000 8.637000 # OT TIP3
353 118 2 0.417000 10.007000 24.937000 8.703000 # HT TIP3
354 118 2 0.417000 8.517000 25.117001 8.312000 # HT TIP3
355 119 3 -0.834000 11.929000 15.750000 6.718000 # OT TIP3
356 119 2 0.417000 11.050000 15.541000 6.408000 # HT TIP3
357 119 2 0.417000 12.401000 14.879000 6.717000 # HT TIP3
358 120 3 -0.834000 20.659000 26.552000 18.448999 # OT TIP3
359 120 2 0.417000 21.181999 27.346001 18.499001 # HT TIP3
360 120 2 0.417000 19.733999 26.858000 18.381001 # HT TIP3
361 121 3 -0.834000 3.086000 26.452000 19.194000 # OT TIP3
362 121 2 0.417000 3.174000 26.923000 18.393999 # HT TIP3
363 121 2 0.417000 2.272000 26.868999 19.604000 # HT TIP3
364 122 3 -0.834000 16.417999 18.291000 50.569000 # OT TIP3
365 122 2 0.417000 17.084000 18.059000 49.956001 # HT TIP3
366 122 2 0.417000 16.983999 18.822001 51.134998 # HT TIP3
367 123 3 -0.834000 17.507000 18.170000 22.006001 # OT TIP3
368 123 2 0.417000 18.226000 18.006001 21.295000 # HT TIP3
369 123 2 0.417000 17.030001 17.297001 22.082001 # HT TIP3
370 124 3 -0.834000 4.790000 24.318001 27.066999 # OT TIP3
371 124 2 0.417000 5.111000 24.684000 27.900999 # HT TIP3
372 124 2 0.417000 3.835000 24.195999 27.247999 # HT TIP3
373 125 3 -0.834000 5.235000 25.410000 53.374001 # OT TIP3
374 125 2 0.417000 5.675000 26.136000 53.820000 # HT TIP3
375 125 2 0.417000 4.576000 25.891001 52.766998 # HT TIP3
376 126 3 -0.834000 1.747000 5.469000 11.579000 # OT TIP3
377 126 2 0.417000 1.426000 4.568000 11.339000 # HT TIP3
378 126 2 0.417000 2.505000 5.585000 10.990000 # HT TIP3
379 127 3 -0.834000 3.681000 3.548000 42.152000 # OT TIP3
380 127 2 0.417000 3.598000 2.590000 41.993999 # HT TIP3
381 127 2 0.417000 4.370000 3.657000 42.869999 # HT TIP3
382 128 3 -0.834000 11.704000 7.721000 16.882999 # OT TIP3
383 128 2 0.417000 11.901000 7.912000 17.836000 # HT TIP3
384 128 2 0.417000 11.127000 6.972000 16.997999 # HT TIP3
385 129 3 -0.834000 3.189000 2.706000 25.878000 # OT TIP3
386 129 2 0.417000 2.464000 2.091000 25.709999 # HT TIP3
387 129 2 0.417000 3.125000 2.805000 26.900000 # HT TIP3
388 130 3 -0.834000 12.763000 20.614000 10.958000 # OT TIP3
389 130 2 0.417000 13.279000 21.405001 10.866000 # HT TIP3
390 130 2 0.417000 13.435000 19.905001 10.901000 # HT TIP3
391 131 3 -0.834000 8.864000 11.603000 29.950001 # OT TIP3
392 131 2 0.417000 8.469000 12.275000 30.507000 # HT TIP3
393 131 2 0.417000 8.154000 10.992000 29.783001 # HT TIP3
394 132 3 -0.834000 5.647000 7.632000 38.534000 # OT TIP3
395 132 2 0.417000 4.842000 7.176000 38.198002 # HT TIP3
396 132 2 0.417000 5.630000 8.486000 38.090000 # HT TIP3
397 133 3 -0.834000 11.893000 9.416000 31.315001 # OT TIP3
398 133 2 0.417000 11.739000 8.787000 30.538000 # HT TIP3
399 133 2 0.417000 11.361000 8.971000 31.974001 # HT TIP3
400 134 3 -0.834000 8.085000 13.323000 45.901001 # OT TIP3
401 134 2 0.417000 8.028000 12.515000 46.480000 # HT TIP3
402 134 2 0.417000 8.997000 13.362000 45.643002 # HT TIP3
403 135 3 -0.834000 8.027000 3.224000 14.411000 # OT TIP3
404 135 2 0.417000 7.185000 3.801000 14.535000 # HT TIP3
405 135 2 0.417000 7.692000 2.403000 14.742000 # HT TIP3
406 136 3 -0.834000 18.812000 6.771000 6.876000 # OT TIP3
407 136 2 0.417000 18.219999 7.316000 6.380000 # HT TIP3
408 136 2 0.417000 18.551001 5.869000 6.669000 # HT TIP3
409 137 3 -0.834000 12.049000 10.880000 27.882000 # OT TIP3
410 137 2 0.417000 12.395000 10.481000 28.655001 # HT TIP3
411 137 2 0.417000 12.905000 11.095000 27.382999 # HT TIP3
412 138 3 -0.834000 21.975000 8.300000 31.576000 # OT TIP3
413 138 2 0.417000 22.781000 7.730000 31.419001 # HT TIP3
414 138 2 0.417000 22.289000 8.819000 32.305000 # HT TIP3
415 139 3 -0.834000 13.521000 14.016000 47.723999 # OT TIP3
416 139 2 0.417000 13.811000 14.641000 48.535000 # HT TIP3
417 139 2 0.417000 14.265000 13.384000 47.646999 # HT TIP3
418 140 3 -0.834000 13.493000 10.451000 3.215000 # OT TIP3
419 140 2 0.417000 13.908000 10.840000 3.987000 # HT TIP3
420 140 2 0.417000 13.982000 9.641000 3.039000 # HT TIP3
421 141 3 -0.834000 12.177000 10.610000 8.928000 # OT TIP3
422 141 2 0.417000 11.443000 11.172000 9.053000 # HT TIP3
423 141 2 0.417000 11.866000 9.788000 9.298000 # HT TIP3
424 142 3 -0.834000 2.838000 4.206000 16.398001 # OT TIP3
425 142 2 0.417000 3.201000 5.081000 16.545000 # HT TIP3
426 142 2 0.417000 3.117000 3.999000 15.422000 # HT TIP3
427 143 3 -0.834000 17.132999 13.593000 17.908001 # OT TIP3
428 143 2 0.417000 16.351999 13.769000 17.391001 # HT TIP3
429 143 2 0.417000 16.886999 12.876000 18.511000 # HT TIP3
430 144 3 -0.834000 2.899000 12.624000 18.893000 # OT TIP3
431 144 2 0.417000 2.139000 12.678000 18.305000 # HT TIP3
432 144 2 0.417000 3.258000 13.535000 18.855000 # HT TIP3
433 145 3 -0.834000 10.220000 14.904000 18.340000 # OT TIP3
434 145 2 0.417000 11.062000 15.198000 18.738001 # HT TIP3
435 145 2 0.417000 10.394000 13.999000 18.101999 # HT TIP3
436 146 3 -0.834000 4.458000 10.868000 23.419001 # OT TIP3
437 146 2 0.417000 5.398000 11.016000 23.653999 # HT TIP3
438 146 2 0.417000 4.448000 11.189000 22.495001 # HT TIP3
439 147 3 -0.834000 3.924000 5.143000 27.959000 # OT TIP3
440 147 2 0.417000 4.558000 5.546000 27.375999 # HT TIP3
441 147 2 0.417000 3.665000 5.830000 28.591999 # HT TIP3
442 148 3 -0.834000 6.953000 14.114000 51.609001 # OT TIP3
443 148 2 0.417000 7.293000 14.194000 50.669998 # HT TIP3
444 148 2 0.417000 7.805000 14.243000 52.096001 # HT TIP3
445 149 3 -0.834000 1.750000 3.938000 34.460999 # OT TIP3
446 149 2 0.417000 1.744000 3.509000 35.314999 # HT TIP3
447 149 2 0.417000 1.391000 4.809000 34.743000 # HT TIP3
448 150 3 -0.834000 11.667000 13.434000 36.502998 # OT TIP3
449 150 2 0.417000 10.874000 13.948000 36.227001 # HT TIP3
450 150 2 0.417000 11.939000 13.945000 37.214001 # HT TIP3
451 151 3 -0.834000 19.441000 17.134001 4.840000 # OT TIP3
452 151 2 0.417000 19.610001 17.488001 3.968000 # HT TIP3
453 151 2 0.417000 20.113001 16.407000 4.961000 # HT TIP3
454 152 3 -0.834000 16.430000 4.274000 8.407000 # OT TIP3
455 152 2 0.417000 16.458000 3.741000 9.157000 # HT TIP3
456 152 2 0.417000 16.933001 3.740000 7.770000 # HT TIP3
457 153 3 -0.834000 14.134000 5.535000 7.559000 # OT TIP3
458 153 2 0.417000 13.434000 4.932000 7.938000 # HT TIP3
459 153 2 0.417000 14.959000 5.162000 7.965000 # HT TIP3
460 154 3 -0.834000 6.708000 5.426000 25.417999 # OT TIP3
461 154 2 0.417000 7.002000 5.703000 26.299999 # HT TIP3
462 154 2 0.417000 6.157000 6.168000 25.143999 # HT TIP3
463 155 3 -0.834000 17.320999 20.495001 16.870001 # OT TIP3
464 155 2 0.417000 17.959999 20.159000 16.191999 # HT TIP3
465 155 2 0.417000 17.854000 21.132000 17.388000 # HT TIP3
466 156 3 -0.834000 11.295000 15.066000 15.320000 # OT TIP3
467 156 2 0.417000 11.592000 15.067000 16.226000 # HT TIP3
468 156 2 0.417000 10.322000 15.226000 15.350000 # HT TIP3
469 157 3 -0.834000 17.007999 18.797001 12.410000 # OT TIP3
470 157 2 0.417000 17.695000 18.702000 11.684000 # HT TIP3
471 157 2 0.417000 16.186001 18.521000 11.942000 # HT TIP3
472 158 3 -0.834000 16.398001 2.552000 19.246000 # OT TIP3
473 158 2 0.417000 17.016001 2.951000 18.566000 # HT TIP3
474 158 2 0.417000 15.574000 3.011000 19.108999 # HT TIP3
475 159 3 -0.834000 4.055000 13.102000 43.695999 # OT TIP3
476 159 2 0.417000 3.634000 13.194000 44.550999 # HT TIP3
477 159 2 0.417000 3.644000 13.777000 43.189999 # HT TIP3
478 160 3 -0.834000 4.108000 3.203000 46.686001 # OT TIP3
479 160 2 0.417000 4.052000 4.171000 46.502998 # HT TIP3
480 160 2 0.417000 4.146000 3.115000 47.673000 # HT TIP3
481 161 3 -0.834000 6.837000 9.956000 53.856998 # OT TIP3
482 161 2 0.417000 6.326000 10.000000 53.087002 # HT TIP3
483 161 2 0.417000 7.422000 10.681000 53.674000 # HT TIP3
484 162 3 -0.834000 8.303000 16.362000 46.029999 # OT TIP3
485 162 2 0.417000 7.624000 16.812000 46.629002 # HT TIP3
486 162 2 0.417000 7.860000 15.595000 45.678001 # HT TIP3
487 163 3 -0.834000 16.055000 5.784000 54.070999 # OT TIP3
488 163 2 0.417000 16.181999 5.244000 54.887001 # HT TIP3
489 163 2 0.417000 16.907000 6.313000 54.051998 # HT TIP3
490 164 3 -0.834000 8.830000 20.750999 2.995000 # OT TIP3
491 164 2 0.417000 8.257000 20.870001 2.247000 # HT TIP3
492 164 2 0.417000 9.329000 19.923000 2.885000 # HT TIP3
493 165 3 -0.834000 10.033000 16.780001 54.122002 # OT TIP3
494 165 2 0.417000 10.770000 17.243999 53.682999 # HT TIP3
495 165 2 0.417000 9.985000 17.164000 55.005001 # HT TIP3
496 166 3 -0.834000 16.027000 12.249000 10.806000 # OT TIP3
497 166 2 0.417000 16.636000 11.953000 10.104000 # HT TIP3
498 166 2 0.417000 15.929000 13.194000 10.545000 # HT TIP3
499 167 3 -0.834000 20.530001 20.813000 25.413000 # OT TIP3
500 167 2 0.417000 21.399000 21.250999 25.330999 # HT TIP3
501 167 2 0.417000 20.754999 19.875999 25.417999 # HT TIP3
502 168 3 -0.834000 11.274000 12.448000 21.959000 # OT TIP3
503 168 2 0.417000 11.893000 12.073000 22.653999 # HT TIP3
504 168 2 0.417000 11.344000 11.891000 21.238001 # HT TIP3
505 169 3 -0.834000 12.473000 7.075000 22.702000 # OT TIP3
506 169 2 0.417000 13.046000 6.667000 23.431000 # HT TIP3
507 169 2 0.417000 11.554000 6.939000 23.100000 # HT TIP3
508 170 3 -0.834000 9.318000 16.284000 26.150000 # OT TIP3
509 170 2 0.417000 9.990000 16.079000 26.736000 # HT TIP3
510 170 2 0.417000 9.736000 16.952999 25.563999 # HT TIP3
511 171 3 -0.834000 4.547000 23.566000 44.145000 # OT TIP3
512 171 2 0.417000 3.662000 23.610001 44.484001 # HT TIP3
513 171 2 0.417000 4.465000 23.704000 43.176998 # HT TIP3