LAMMPS data file. CGCMM style. atom_style full generated by VMD/TopoTools v1.1 on Thu Sep 20 09:58:29 +0800 2012
 3550 atoms
 2300 bonds
 1150 angles
 0 dihedrals
 0 impropers
 4 atom types
 1 bond types
 1 angle types
 0 dihedral types
 0 improper types
 -0.199999 28.800001  xlo xhi
 0.046001 29.046001  ylo yhi
 80.021004 129.021004  zlo zhi

# Pair Coeffs
#
# 1  CLA
# 2  HT
# 3  OT
# 4  SOD

# Bond Coeffs
#
# 1  

# Angle Coeffs
#
# 1  unknown

 Masses

 1 35.452999 # CLA
 2 1.007940 # HT
 3 15.999400 # OT
 4 22.989771 # SOD

 Atoms

1 1 3 -0.834000 3.668000 10.082000 95.903999 # OT TIP3
2 1 2 0.417000 3.224000 10.451000 95.100998 # HT TIP3
3 1 2 0.417000 3.092000 10.379000 96.626999 # HT TIP3
4 2 3 -0.834000 6.033000 4.876000 100.890999 # OT TIP3
5 2 2 0.417000 6.078000 5.224000 101.797997 # HT TIP3
6 2 2 0.417000 6.592000 4.088000 100.960999 # HT TIP3
7 3 3 -0.834000 4.569000 3.960000 109.887001 # OT TIP3
8 3 2 0.417000 3.959000 3.160000 109.980003 # HT TIP3
9 3 2 0.417000 3.995000 4.655000 109.421997 # HT TIP3
10 4 3 -0.834000 0.975000 14.007000 118.567001 # OT TIP3
11 4 2 0.417000 1.137000 13.263000 117.966003 # HT TIP3
12 4 2 0.417000 0.619000 13.539000 119.360001 # HT TIP3
13 5 3 -0.834000 5.186000 16.695999 92.071999 # OT TIP3
14 5 2 0.417000 6.083000 16.979000 91.816002 # HT TIP3
15 5 2 0.417000 5.337000 15.832000 92.489998 # HT TIP3
16 6 3 -0.834000 14.437000 5.794000 110.556000 # OT TIP3
17 6 2 0.417000 13.524000 5.319000 110.531998 # HT TIP3
18 6 2 0.417000 14.984000 5.113000 110.973000 # HT TIP3
19 7 3 -0.834000 8.324000 13.811000 101.332001 # OT TIP3
20 7 2 0.417000 8.633000 13.348000 102.112000 # HT TIP3
21 7 2 0.417000 8.506000 13.116000 100.644997 # HT TIP3
22 8 3 -0.834000 11.462000 26.025999 111.373001 # OT TIP3
23 8 2 0.417000 11.386000 26.695000 112.075996 # HT TIP3
24 8 2 0.417000 10.619000 26.080000 110.935997 # HT TIP3
25 9 3 -0.834000 3.786000 16.318001 81.309998 # OT TIP3
26 9 2 0.417000 3.781000 15.388000 81.195999 # HT TIP3
27 9 2 0.417000 4.528000 16.580000 80.780998 # HT TIP3
28 10 3 -0.834000 6.205000 6.991000 98.442001 # OT TIP3
29 10 2 0.417000 6.782000 7.347000 99.152000 # HT TIP3
30 10 2 0.417000 5.309000 7.062000 98.800003 # HT TIP3
31 11 3 -0.834000 16.125999 14.701000 84.577003 # OT TIP3
32 11 2 0.417000 16.070000 14.272000 83.725998 # HT TIP3
33 11 2 0.417000 16.805000 15.454000 84.445000 # HT TIP3
34 12 3 -0.834000 2.750000 8.844000 89.628998 # OT TIP3
35 12 2 0.417000 2.110000 8.290000 89.998001 # HT TIP3
36 12 2 0.417000 2.164000 9.245000 88.961998 # HT TIP3
37 13 3 -0.834000 3.935000 16.195000 102.109001 # OT TIP3
38 13 2 0.417000 4.870000 16.034000 101.985001 # HT TIP3
39 13 2 0.417000 3.655000 15.367000 102.581001 # HT TIP3
40 14 3 -0.834000 2.991000 11.162000 107.860001 # OT TIP3
41 14 2 0.417000 3.594000 10.968000 107.128998 # HT TIP3
42 14 2 0.417000 2.414000 11.775000 107.430000 # HT TIP3
43 15 3 -0.834000 4.240000 7.037000 107.081001 # OT TIP3
44 15 2 0.417000 4.656000 7.831000 106.657997 # HT TIP3
45 15 2 0.417000 3.786000 7.428000 107.811996 # HT TIP3
46 16 3 -0.834000 7.172000 6.999000 118.581001 # OT TIP3
47 16 2 0.417000 7.040000 7.550000 119.327003 # HT TIP3
48 16 2 0.417000 6.244000 6.756000 118.263000 # HT TIP3
49 17 3 -0.834000 10.674000 8.909000 84.986000 # OT TIP3
50 17 2 0.417000 10.998000 8.871000 85.931999 # HT TIP3
51 17 2 0.417000 9.748000 9.270000 85.074997 # HT TIP3
52 18 3 -0.834000 0.002000 5.667000 94.591003 # OT TIP3
53 18 2 0.417000 0.483000 5.990000 93.830002 # HT TIP3
54 18 2 0.417000 0.608000 5.781000 95.347000 # HT TIP3
55 19 3 -0.834000 9.882000 9.156000 94.916000 # OT TIP3
56 19 2 0.417000 9.574000 9.753000 95.597000 # HT TIP3
57 19 2 0.417000 10.021000 8.264000 95.289001 # HT TIP3
58 20 3 -0.834000 7.964000 6.107000 109.453003 # OT TIP3
59 20 2 0.417000 8.242000 5.206000 109.598999 # HT TIP3
60 20 2 0.417000 8.422000 6.545000 110.237000 # HT TIP3
61 21 3 -0.834000 24.177000 14.271000 118.125999 # OT TIP3
62 21 2 0.417000 23.534000 13.942000 117.459000 # HT TIP3
63 21 2 0.417000 25.062000 14.082000 117.681999 # HT TIP3
64 22 3 -0.834000 6.316000 5.288000 107.495003 # OT TIP3
65 22 2 0.417000 6.640000 5.631000 108.362999 # HT TIP3
66 22 2 0.417000 5.563000 5.852000 107.279999 # HT TIP3
67 23 3 -0.834000 1.661000 6.681000 81.943001 # OT TIP3
68 23 2 0.417000 1.943000 5.739000 81.981003 # HT TIP3
69 23 2 0.417000 0.778000 6.599000 81.483002 # HT TIP3
70 24 3 -0.834000 4.821000 20.603001 91.238998 # OT TIP3
71 24 2 0.417000 5.466000 20.782000 91.962997 # HT TIP3
72 24 2 0.417000 5.384000 20.914000 90.456001 # HT TIP3
73 25 3 -0.834000 15.022000 20.855000 92.831001 # OT TIP3
74 25 2 0.417000 14.222000 20.809000 93.292000 # HT TIP3
75 25 2 0.417000 14.673000 21.056999 91.917999 # HT TIP3
76 26 3 -0.834000 1.339000 3.782000 102.814003 # OT TIP3
77 26 2 0.417000 0.839000 3.425000 102.086998 # HT TIP3
78 26 2 0.417000 1.775000 3.077000 103.138000 # HT TIP3
79 27 3 -0.834000 0.485000 15.137000 102.475998 # OT TIP3
80 27 2 0.417000 0.644000 15.425000 103.348999 # HT TIP3
81 27 2 0.417000 0.312000 15.961000 101.974998 # HT TIP3
82 28 3 -0.834000 12.421000 20.594999 111.343002 # OT TIP3
83 28 2 0.417000 12.330000 20.621000 112.303001 # HT TIP3
84 28 2 0.417000 12.281000 21.525999 111.063004 # HT TIP3
85 29 3 -0.834000 9.955000 17.632999 121.207001 # OT TIP3
86 29 2 0.417000 9.041000 17.861000 121.366997 # HT TIP3
87 29 2 0.417000 10.205000 16.962999 121.947998 # HT TIP3
88 30 3 -0.834000 5.608000 23.917999 92.959000 # OT TIP3
89 30 2 0.417000 4.840000 23.622000 92.544998 # HT TIP3
90 30 2 0.417000 6.037000 24.336000 92.208000 # HT TIP3
91 31 3 -0.834000 10.426000 7.604000 82.403999 # OT TIP3
92 31 2 0.417000 10.761000 8.401000 81.994003 # HT TIP3
93 31 2 0.417000 10.248000 7.889000 83.307999 # HT TIP3
94 32 3 -0.834000 8.569000 25.684000 92.210999 # OT TIP3
95 32 2 0.417000 9.123000 25.542000 93.014999 # HT TIP3
96 32 2 0.417000 8.805000 26.594999 91.927002 # HT TIP3
97 33 3 -0.834000 4.269000 22.752001 96.264999 # OT TIP3
98 33 2 0.417000 4.149000 23.680000 95.888000 # HT TIP3
99 33 2 0.417000 5.061000 22.796000 96.776001 # HT TIP3
100 34 3 -0.834000 3.599000 13.689000 103.583000 # OT TIP3
101 34 2 0.417000 3.430000 12.876000 104.061996 # HT TIP3
102 34 2 0.417000 4.561000 13.769000 103.661003 # HT TIP3
103 35 3 -0.834000 19.952000 1.961000 106.164001 # OT TIP3
104 35 2 0.417000 20.414000 1.079000 106.079002 # HT TIP3
105 35 2 0.417000 20.667000 2.653000 106.013000 # HT TIP3
106 36 3 -0.834000 23.517000 11.039000 122.783997 # OT TIP3
107 36 2 0.417000 22.687000 10.572000 122.893997 # HT TIP3
108 36 2 0.417000 24.010000 10.506000 123.361000 # HT TIP3
109 37 3 -0.834000 22.572001 6.242000 83.477997 # OT TIP3
110 37 2 0.417000 21.705000 5.845000 83.830002 # HT TIP3
111 37 2 0.417000 22.951000 5.659000 82.858002 # HT TIP3
112 38 3 -0.834000 10.926000 5.365000 81.017998 # OT TIP3
113 38 2 0.417000 11.138000 4.769000 81.753998 # HT TIP3
114 38 2 0.417000 10.657000 6.212000 81.492996 # HT TIP3
115 39 3 -0.834000 8.647000 4.314000 99.278000 # OT TIP3
116 39 2 0.417000 7.964000 3.611000 99.325996 # HT TIP3
117 39 2 0.417000 8.043000 5.064000 99.153000 # HT TIP3
118 40 3 -0.834000 8.381000 17.319000 103.275002 # OT TIP3
119 40 2 0.417000 7.516000 17.340000 103.695000 # HT TIP3
120 40 2 0.417000 8.431000 18.263000 103.009003 # HT TIP3
121 41 3 -0.834000 4.342000 11.388000 105.271004 # OT TIP3
122 41 2 0.417000 4.842000 10.697000 105.678001 # HT TIP3
123 41 2 0.417000 4.903000 12.148000 105.578003 # HT TIP3
124 42 3 -0.834000 1.670000 15.675000 109.166000 # OT TIP3
125 42 2 0.417000 2.120000 15.950000 109.973999 # HT TIP3
126 42 2 0.417000 0.763000 15.517000 109.468002 # HT TIP3
127 43 3 -0.834000 16.469999 28.089001 82.181000 # OT TIP3
128 43 2 0.417000 16.854000 27.230000 82.499001 # HT TIP3
129 43 2 0.417000 15.533000 27.856001 82.087997 # HT TIP3
130 44 3 -0.834000 0.802000 25.084000 85.523003 # OT TIP3
131 44 2 0.417000 0.579000 26.065001 85.504997 # HT TIP3
132 44 2 0.417000 1.795000 25.163000 85.445000 # HT TIP3
133 45 3 -0.834000 4.299000 17.774000 87.168999 # OT TIP3
134 45 2 0.417000 3.303000 17.802999 87.321999 # HT TIP3
135 45 2 0.417000 4.533000 18.754999 86.924004 # HT TIP3
136 46 3 -0.834000 8.892000 12.977000 85.320999 # OT TIP3
137 46 2 0.417000 8.119000 12.478000 85.443001 # HT TIP3
138 46 2 0.417000 9.342000 12.557000 84.536003 # HT TIP3
139 47 3 -0.834000 2.708000 20.969000 104.503998 # OT TIP3
140 47 2 0.417000 2.589000 20.945000 103.556000 # HT TIP3
141 47 2 0.417000 3.123000 21.834999 104.549004 # HT TIP3
142 48 3 -0.834000 13.773000 17.596001 127.113998 # OT TIP3
143 48 2 0.417000 12.829000 17.724001 127.223999 # HT TIP3
144 48 2 0.417000 14.043000 17.148001 127.974998 # HT TIP3
145 49 3 -0.834000 2.174000 18.468000 82.211998 # OT TIP3
146 49 2 0.417000 2.632000 17.628000 82.203003 # HT TIP3
147 49 2 0.417000 2.931000 19.120001 82.280998 # HT TIP3
148 50 3 -0.834000 5.048000 9.046000 116.578003 # OT TIP3
149 50 2 0.417000 5.064000 9.889000 117.058998 # HT TIP3
150 50 2 0.417000 4.622000 9.224000 115.742996 # HT TIP3
151 51 3 -0.834000 12.390000 27.306999 117.360001 # OT TIP3
152 51 2 0.417000 11.845000 28.113001 117.292999 # HT TIP3
153 51 2 0.417000 12.045000 26.920000 118.175003 # HT TIP3
154 52 3 -0.834000 18.870001 21.459999 108.971001 # OT TIP3
155 52 2 0.417000 17.903000 21.288000 108.721001 # HT TIP3
156 52 2 0.417000 19.073999 20.691000 109.591003 # HT TIP3
157 53 3 -0.834000 2.129000 21.440001 125.620003 # OT TIP3
158 53 2 0.417000 2.529000 22.283001 125.911003 # HT TIP3
159 53 2 0.417000 1.390000 21.409000 126.234001 # HT TIP3
160 54 3 -0.834000 13.612000 17.680000 98.622002 # OT TIP3
161 54 2 0.417000 13.744000 17.414000 99.508003 # HT TIP3
162 54 2 0.417000 14.526000 17.830999 98.347000 # HT TIP3
163 55 3 -0.834000 1.287000 24.132000 103.737000 # OT TIP3
164 55 2 0.417000 1.235000 23.924000 104.731003 # HT TIP3
165 55 2 0.417000 2.088000 24.709000 103.639000 # HT TIP3
166 56 3 -0.834000 6.365000 2.674000 108.058998 # OT TIP3
167 56 2 0.417000 5.799000 3.437000 107.848999 # HT TIP3
168 56 2 0.417000 7.175000 3.055000 108.403000 # HT TIP3
169 57 3 -0.834000 9.339000 6.738000 111.901001 # OT TIP3
170 57 2 0.417000 8.904000 7.236000 112.634003 # HT TIP3
171 57 2 0.417000 9.404000 5.838000 112.222000 # HT TIP3
172 58 3 -0.834000 15.414000 6.569000 82.500999 # OT TIP3
173 58 2 0.417000 16.224001 6.858000 82.127998 # HT TIP3
174 58 2 0.417000 14.808000 6.700000 81.670998 # HT TIP3
175 59 3 -0.834000 7.571000 3.798000 114.095001 # OT TIP3
176 59 2 0.417000 6.966000 4.404000 113.494003 # HT TIP3
177 59 2 0.417000 7.446000 4.095000 115.028000 # HT TIP3
178 60 3 -0.834000 9.935000 12.876000 90.191002 # OT TIP3
179 60 2 0.417000 9.709000 12.098000 89.634003 # HT TIP3
180 60 2 0.417000 9.472000 12.766000 91.017998 # HT TIP3
181 61 3 -0.834000 7.060000 2.074000 99.830002 # OT TIP3
182 61 2 0.417000 7.650000 1.619000 100.528000 # HT TIP3
183 61 2 0.417000 6.148000 1.796000 100.035004 # HT TIP3
184 62 3 -0.834000 10.895000 19.325001 119.064003 # OT TIP3
185 62 2 0.417000 10.367000 18.768000 119.668999 # HT TIP3
186 62 2 0.417000 11.786000 18.958000 119.228996 # HT TIP3
187 63 3 -0.834000 9.957000 14.780000 128.733002 # OT TIP3
188 63 2 0.417000 10.058000 14.175000 127.972000 # HT TIP3
189 63 2 0.417000 9.107000 15.196000 128.518005 # HT TIP3
190 64 3 -0.834000 13.891000 1.919000 82.991997 # OT TIP3
191 64 2 0.417000 14.198000 2.681000 83.421997 # HT TIP3
192 64 2 0.417000 13.212000 1.577000 83.578003 # HT TIP3
193 65 3 -0.834000 8.823000 10.581000 88.827003 # OT TIP3
194 65 2 0.417000 8.183000 10.753000 88.148003 # HT TIP3
195 65 2 0.417000 8.389000 10.061000 89.533997 # HT TIP3
196 66 3 -0.834000 8.369000 17.158001 128.436005 # OT TIP3
197 66 2 0.417000 7.983000 17.021000 127.574997 # HT TIP3
198 66 2 0.417000 7.764000 17.888000 128.785004 # HT TIP3
199 67 3 -0.834000 10.282000 0.640000 82.053001 # OT TIP3
200 67 2 0.417000 10.367000 0.959000 83.015999 # HT TIP3
201 67 2 0.417000 9.743000 1.323000 81.667000 # HT TIP3
202 68 3 -0.834000 3.403000 4.687000 89.815002 # OT TIP3
203 68 2 0.417000 3.109000 5.272000 89.097000 # HT TIP3
204 68 2 0.417000 3.817000 3.973000 89.327003 # HT TIP3
205 69 3 -0.834000 3.276000 7.465000 99.324997 # OT TIP3
206 69 2 0.417000 2.772000 6.991000 99.963997 # HT TIP3
207 69 2 0.417000 3.604000 8.288000 99.752998 # HT TIP3
208 70 3 -0.834000 2.891000 5.044000 112.612999 # OT TIP3
209 70 2 0.417000 2.260000 4.520000 113.150002 # HT TIP3
210 70 2 0.417000 2.303000 5.510000 112.019997 # HT TIP3
211 71 3 -0.834000 1.840000 8.265000 108.662003 # OT TIP3
212 71 2 0.417000 1.680000 8.044000 107.747002 # HT TIP3
213 71 2 0.417000 1.834000 9.211000 108.733002 # HT TIP3
214 72 3 -0.834000 9.700000 13.093000 126.444000 # OT TIP3
215 72 2 0.417000 10.512000 13.155000 126.012001 # HT TIP3
216 72 2 0.417000 9.781000 12.193000 126.754997 # HT TIP3
217 73 3 -0.834000 0.737000 17.902000 117.089996 # OT TIP3
218 73 2 0.417000 0.459000 18.792000 117.351997 # HT TIP3
219 73 2 0.417000 0.866000 17.948999 116.147003 # HT TIP3
220 74 3 -0.834000 9.978000 7.875000 104.947998 # OT TIP3
221 74 2 0.417000 9.589000 7.626000 105.845001 # HT TIP3
222 74 2 0.417000 10.436000 8.656000 105.186996 # HT TIP3
223 75 3 -0.834000 9.927000 4.185000 112.805000 # OT TIP3
224 75 2 0.417000 9.056000 3.935000 113.202003 # HT TIP3
225 75 2 0.417000 10.360000 3.325000 112.665001 # HT TIP3
226 76 3 -0.834000 20.764999 16.218000 128.371994 # OT TIP3
227 76 2 0.417000 20.822001 16.158001 127.389999 # HT TIP3
228 76 2 0.417000 21.594999 15.857000 128.699005 # HT TIP3
229 77 3 -0.834000 3.119000 10.325000 93.157997 # OT TIP3
230 77 2 0.417000 3.598000 10.900000 92.512001 # HT TIP3
231 77 2 0.417000 3.440000 9.430000 92.961998 # HT TIP3
232 78 3 -0.834000 2.378000 5.806000 96.252998 # OT TIP3
233 78 2 0.417000 2.157000 6.161000 97.098999 # HT TIP3
234 78 2 0.417000 3.301000 6.032000 96.125999 # HT TIP3
235 79 3 -0.834000 6.382000 22.271000 82.319000 # OT TIP3
236 79 2 0.417000 5.550000 22.035000 81.847000 # HT TIP3
237 79 2 0.417000 6.859000 21.472000 82.192001 # HT TIP3
238 80 3 -0.834000 4.017000 3.905000 99.417999 # OT TIP3
239 80 2 0.417000 3.142000 4.042000 99.132004 # HT TIP3
240 80 2 0.417000 4.582000 4.727000 99.294998 # HT TIP3
241 81 3 -0.834000 2.344000 20.472000 101.630997 # OT TIP3
242 81 2 0.417000 2.932000 20.820999 100.945000 # HT TIP3
243 81 2 0.417000 1.467000 20.548000 101.138000 # HT TIP3
244 82 3 -0.834000 11.492000 5.548000 114.846001 # OT TIP3
245 82 2 0.417000 11.163000 5.204000 114.040001 # HT TIP3
246 82 2 0.417000 11.386000 6.479000 114.859001 # HT TIP3
247 83 3 -0.834000 4.127000 1.870000 112.761002 # OT TIP3
248 83 2 0.417000 3.830000 2.272000 111.988998 # HT TIP3
249 83 2 0.417000 4.730000 2.562000 113.098000 # HT TIP3
250 84 3 -0.834000 14.526000 10.532000 100.137001 # OT TIP3
251 84 2 0.417000 14.162000 9.733000 100.502998 # HT TIP3
252 84 2 0.417000 14.466000 10.420000 99.194000 # HT TIP3
253 85 3 -0.834000 26.124001 16.594000 96.806999 # OT TIP3
254 85 2 0.417000 26.948000 16.864000 97.244003 # HT TIP3
255 85 2 0.417000 26.136999 17.048000 95.900002 # HT TIP3
256 86 3 -0.834000 8.876000 28.437000 85.579002 # OT TIP3
257 86 2 0.417000 9.227000 27.577000 85.358002 # HT TIP3
258 86 2 0.417000 8.790000 28.398001 86.532997 # HT TIP3
259 87 3 -0.834000 5.573000 14.804000 99.089996 # OT TIP3
260 87 2 0.417000 5.959000 15.339000 99.807999 # HT TIP3
261 87 2 0.417000 5.869000 15.413000 98.331001 # HT TIP3
262 88 3 -0.834000 16.283001 7.354000 102.780998 # OT TIP3
263 88 2 0.417000 15.640000 8.058000 102.448997 # HT TIP3
264 88 2 0.417000 15.973000 6.560000 102.378998 # HT TIP3
265 89 3 -0.834000 22.872000 18.441000 96.788002 # OT TIP3
266 89 2 0.417000 22.201000 17.864000 96.378998 # HT TIP3
267 89 2 0.417000 22.334999 18.981001 97.425003 # HT TIP3
268 90 3 -0.834000 10.105000 0.841000 119.111000 # OT TIP3
269 90 2 0.417000 9.488000 1.450000 118.630997 # HT TIP3
270 90 2 0.417000 10.632000 1.418000 119.705002 # HT TIP3
271 91 3 -0.834000 0.742000 20.646999 117.424004 # OT TIP3
272 91 2 0.417000 0.163000 21.202000 116.855003 # HT TIP3
273 91 2 0.417000 1.532000 20.410000 116.836998 # HT TIP3
274 92 3 -0.834000 2.007000 13.254000 128.653000 # OT TIP3
275 92 2 0.417000 1.633000 13.133000 127.752998 # HT TIP3
276 92 2 0.417000 2.082000 14.201000 128.654999 # HT TIP3
277 93 3 -0.834000 5.458000 13.097000 84.588997 # OT TIP3
278 93 2 0.417000 5.673000 13.019000 83.612000 # HT TIP3
279 93 2 0.417000 4.899000 13.894000 84.656998 # HT TIP3
280 94 3 -0.834000 27.849001 9.868000 99.172997 # OT TIP3
281 94 2 0.417000 27.170000 9.720000 99.862999 # HT TIP3
282 94 2 0.417000 27.403000 10.419000 98.488998 # HT TIP3
283 95 3 -0.834000 4.552000 1.370000 100.330002 # OT TIP3
284 95 2 0.417000 4.274000 2.194000 99.953003 # HT TIP3
285 95 2 0.417000 4.235000 0.801000 99.570999 # HT TIP3
286 96 3 -0.834000 4.594000 25.266001 95.199997 # OT TIP3
287 96 2 0.417000 3.638000 25.500000 95.195999 # HT TIP3
288 96 2 0.417000 4.758000 24.896999 94.311996 # HT TIP3
289 97 3 -0.834000 10.966000 0.487000 107.664001 # OT TIP3
290 97 2 0.417000 10.835000 1.423000 107.474998 # HT TIP3
291 97 2 0.417000 10.558000 0.092000 106.883003 # HT TIP3
292 98 3 -0.834000 6.580000 12.992000 109.691002 # OT TIP3
293 98 2 0.417000 6.430000 13.886000 109.972000 # HT TIP3
294 98 2 0.417000 6.429000 12.499000 110.481003 # HT TIP3
295 99 3 -0.834000 5.160000 13.744000 87.954002 # OT TIP3
296 99 2 0.417000 6.048000 13.422000 88.207001 # HT TIP3
297 99 2 0.417000 5.008000 14.493000 88.528000 # HT TIP3
298 100 3 -0.834000 1.488000 7.754000 111.837997 # OT TIP3
299 100 2 0.417000 0.778000 8.323000 112.195000 # HT TIP3
300 100 2 0.417000 1.543000 8.043000 110.920998 # HT TIP3
301 101 3 -0.834000 3.348000 27.087000 124.369003 # OT TIP3
302 101 2 0.417000 3.847000 27.254999 125.224998 # HT TIP3
303 101 2 0.417000 2.813000 26.334999 124.661003 # HT TIP3
304 102 3 -0.834000 10.390000 6.386000 98.828003 # OT TIP3
305 102 2 0.417000 10.688000 6.484000 99.731003 # HT TIP3
306 102 2 0.417000 9.844000 5.589000 98.920998 # HT TIP3
307 103 3 -0.834000 1.678000 21.941999 81.035004 # OT TIP3
308 103 2 0.417000 1.272000 21.280001 81.592003 # HT TIP3
309 103 2 0.417000 1.498000 22.809000 81.492996 # HT TIP3
310 104 3 -0.834000 9.630000 21.547001 83.000000 # OT TIP3
311 104 2 0.417000 9.601000 22.471001 82.642998 # HT TIP3
312 104 2 0.417000 9.287000 20.954000 82.311996 # HT TIP3
313 105 3 -0.834000 2.344000 10.571000 82.624001 # OT TIP3
314 105 2 0.417000 2.122000 10.753000 83.553001 # HT TIP3
315 105 2 0.417000 2.947000 9.791000 82.616997 # HT TIP3
316 106 3 -0.834000 2.582000 27.635000 102.063004 # OT TIP3
317 106 2 0.417000 1.826000 27.334000 102.610001 # HT TIP3
318 106 2 0.417000 2.141000 27.872999 101.226997 # HT TIP3
319 107 3 -0.834000 2.619000 28.047001 117.820000 # OT TIP3
320 107 2 0.417000 2.469000 28.993999 117.611000 # HT TIP3
321 107 2 0.417000 1.971000 27.756001 118.500000 # HT TIP3
322 108 3 -0.834000 8.123000 7.890000 114.105003 # OT TIP3
323 108 2 0.417000 8.283000 7.539000 115.039001 # HT TIP3
324 108 2 0.417000 8.729000 8.634000 114.000000 # HT TIP3
325 109 3 -0.834000 13.385000 9.769000 109.453003 # OT TIP3
326 109 2 0.417000 13.856000 10.391000 110.061996 # HT TIP3
327 109 2 0.417000 12.599000 9.513000 109.964996 # HT TIP3
328 110 3 -0.834000 0.823000 23.667999 82.888000 # OT TIP3
329 110 2 0.417000 1.636000 23.316000 83.339996 # HT TIP3
330 110 2 0.417000 0.253000 23.978001 83.639999 # HT TIP3
331 111 3 -0.834000 13.220000 24.493999 93.092003 # OT TIP3
332 111 2 0.417000 12.891000 25.382999 93.287003 # HT TIP3
333 111 2 0.417000 13.056000 23.917999 93.852997 # HT TIP3
334 112 3 -0.834000 6.911000 19.458000 97.334999 # OT TIP3
335 112 2 0.417000 7.517000 20.118000 96.957001 # HT TIP3
336 112 2 0.417000 6.315000 19.136000 96.587997 # HT TIP3
337 113 3 -0.834000 13.336000 24.461000 116.785004 # OT TIP3
338 113 2 0.417000 13.239000 25.164000 117.433998 # HT TIP3
339 113 2 0.417000 13.693000 23.712999 117.244003 # HT TIP3
340 114 3 -0.834000 2.834000 15.043000 114.374001 # OT TIP3
341 114 2 0.417000 2.279000 14.807000 115.123001 # HT TIP3
342 114 2 0.417000 3.607000 14.549000 114.502998 # HT TIP3
343 115 3 -0.834000 23.124001 20.629000 125.624001 # OT TIP3
344 115 2 0.417000 22.110001 20.586000 125.371002 # HT TIP3
345 115 2 0.417000 23.295000 19.663000 125.829002 # HT TIP3
346 116 3 -0.834000 5.179000 20.889999 107.387001 # OT TIP3
347 116 2 0.417000 4.618000 21.606001 107.646004 # HT TIP3
348 116 2 0.417000 5.196000 20.211000 108.107002 # HT TIP3
349 117 3 -0.834000 16.191999 22.403000 83.781998 # OT TIP3
350 117 2 0.417000 16.363001 22.881001 84.622002 # HT TIP3
351 117 2 0.417000 16.427000 23.065001 83.085999 # HT TIP3
352 118 3 -0.834000 13.540000 22.219999 82.748001 # OT TIP3
353 118 2 0.417000 12.965000 22.475000 83.461998 # HT TIP3
354 118 2 0.417000 14.428000 22.403999 83.073997 # HT TIP3
355 119 3 -0.834000 9.525000 28.541000 110.151001 # OT TIP3
356 119 2 0.417000 10.415000 28.417999 109.685997 # HT TIP3
357 119 2 0.417000 9.197000 27.671000 110.238998 # HT TIP3
358 120 3 -0.834000 8.389000 18.165001 110.991997 # OT TIP3
359 120 2 0.417000 7.968000 17.770000 110.209999 # HT TIP3
360 120 2 0.417000 8.417000 17.451000 111.640999 # HT TIP3
361 121 3 -0.834000 10.438000 21.237000 121.009003 # OT TIP3
362 121 2 0.417000 10.846000 20.740000 120.267998 # HT TIP3
363 121 2 0.417000 9.577000 21.480000 120.711998 # HT TIP3
364 122 3 -0.834000 15.326000 26.968000 111.402000 # OT TIP3
365 122 2 0.417000 14.453000 26.736000 110.928001 # HT TIP3
366 122 2 0.417000 15.068000 27.620001 112.032997 # HT TIP3
367 123 3 -0.834000 8.181000 23.465000 87.637001 # OT TIP3
368 123 2 0.417000 9.007000 23.937000 87.703003 # HT TIP3
369 123 2 0.417000 7.517000 24.117001 87.311996 # HT TIP3
370 124 3 -0.834000 19.659000 25.552000 97.448997 # OT TIP3
371 124 2 0.417000 20.181999 26.346001 97.499001 # HT TIP3
372 124 2 0.417000 18.733999 25.858000 97.380997 # HT TIP3
373 125 3 -0.834000 1.683000 25.667000 106.332001 # OT TIP3
374 125 2 0.417000 2.580000 25.907000 106.426003 # HT TIP3
375 125 2 0.417000 1.485000 25.226999 107.125999 # HT TIP3
376 126 3 -0.834000 23.330999 21.618999 98.069000 # OT TIP3
377 126 2 0.417000 23.136999 22.516001 98.456001 # HT TIP3
378 126 2 0.417000 22.663000 20.985001 98.449997 # HT TIP3
379 127 3 -0.834000 16.507000 17.170000 101.005997 # OT TIP3
380 127 2 0.417000 17.226000 17.006001 100.294998 # HT TIP3
381 127 2 0.417000 16.030001 16.297001 101.082001 # HT TIP3
382 128 3 -0.834000 3.790000 23.318001 106.067001 # OT TIP3
383 128 2 0.417000 4.111000 23.684000 106.901001 # HT TIP3
384 128 2 0.417000 2.835000 23.195999 106.248001 # HT TIP3
385 129 3 -0.834000 11.220000 28.815001 125.709000 # OT TIP3
386 129 2 0.417000 11.874000 28.105000 125.431000 # HT TIP3
387 129 2 0.417000 11.482000 28.879999 126.672997 # HT TIP3
388 130 3 -0.834000 0.747000 4.469000 90.579002 # OT TIP3
389 130 2 0.417000 0.426000 3.568000 90.338997 # HT TIP3
390 130 2 0.417000 1.505000 4.585000 89.989998 # HT TIP3
391 131 3 -0.834000 15.721000 2.984000 125.033997 # OT TIP3
392 131 2 0.417000 15.917000 3.285000 125.986000 # HT TIP3
393 131 2 0.417000 14.948000 3.470000 124.776001 # HT TIP3
394 132 3 -0.834000 5.356000 5.388000 96.045998 # OT TIP3
395 132 2 0.417000 5.884000 6.064000 96.460999 # HT TIP3
396 132 2 0.417000 5.592000 4.622000 96.537003 # HT TIP3
397 133 3 -0.834000 1.889000 5.585000 109.541000 # OT TIP3
398 133 2 0.417000 1.938000 6.502000 109.263000 # HT TIP3
399 133 2 0.417000 1.015000 5.312000 109.144997 # HT TIP3
400 134 3 -0.834000 2.681000 2.548000 121.152000 # OT TIP3
401 134 2 0.417000 2.598000 1.590000 120.994003 # HT TIP3
402 134 2 0.417000 3.370000 2.657000 121.870003 # HT TIP3
403 135 3 -0.834000 26.896999 12.094000 80.679001 # OT TIP3
404 135 2 0.417000 26.514000 11.280000 80.304001 # HT TIP3
405 135 2 0.417000 27.875000 11.927000 80.553001 # HT TIP3
406 136 3 -0.834000 2.189000 1.706000 104.877998 # OT TIP3
407 136 2 0.417000 1.464000 1.091000 104.709999 # HT TIP3
408 136 2 0.417000 2.125000 1.805000 105.900002 # HT TIP3
409 137 3 -0.834000 11.763000 19.614000 89.958000 # OT TIP3
410 137 2 0.417000 12.279000 20.405001 89.865997 # HT TIP3
411 137 2 0.417000 12.435000 18.905001 89.901001 # HT TIP3
412 138 3 -0.834000 7.864000 10.603000 108.949997 # OT TIP3
413 138 2 0.417000 7.469000 11.275000 109.507004 # HT TIP3
414 138 2 0.417000 7.154000 9.992000 108.782997 # HT TIP3
415 139 3 -0.834000 4.647000 6.632000 117.533997 # OT TIP3
416 139 2 0.417000 3.842000 6.176000 117.197998 # HT TIP3
417 139 2 0.417000 4.630000 7.486000 117.089996 # HT TIP3
418 140 3 -0.834000 10.893000 8.416000 110.315002 # OT TIP3
419 140 2 0.417000 10.739000 7.787000 109.538002 # HT TIP3
420 140 2 0.417000 10.361000 7.971000 110.973999 # HT TIP3
421 141 3 -0.834000 7.027000 2.224000 93.411003 # OT TIP3
422 141 2 0.417000 6.185000 2.801000 93.535004 # HT TIP3
423 141 2 0.417000 6.692000 1.403000 93.741997 # HT TIP3
424 142 3 -0.834000 17.812000 5.771000 85.875999 # OT TIP3
425 142 2 0.417000 17.219999 6.316000 85.379997 # HT TIP3
426 142 2 0.417000 17.551001 4.869000 85.668999 # HT TIP3
427 143 3 -0.834000 4.028000 7.699000 92.776001 # OT TIP3
428 143 2 0.417000 4.577000 7.193000 92.138000 # HT TIP3
429 143 2 0.417000 3.171000 7.320000 92.543999 # HT TIP3
430 144 3 -0.834000 11.049000 9.880000 106.882004 # OT TIP3
431 144 2 0.417000 11.395000 9.481000 107.654999 # HT TIP3
432 144 2 0.417000 11.905000 10.095000 106.383003 # HT TIP3
433 145 3 -0.834000 22.132999 2.886000 99.843002 # OT TIP3
434 145 2 0.417000 22.929001 2.596000 100.262001 # HT TIP3
435 145 2 0.417000 21.486000 2.828000 100.560997 # HT TIP3
436 146 3 -0.834000 20.975000 7.300000 110.575996 # OT TIP3
437 146 2 0.417000 21.781000 6.730000 110.418999 # HT TIP3
438 146 2 0.417000 21.289000 7.819000 111.305000 # HT TIP3
439 147 3 -0.834000 12.521000 13.016000 126.723999 # OT TIP3
440 147 2 0.417000 12.811000 13.641000 127.535004 # HT TIP3
441 147 2 0.417000 13.265000 12.384000 126.647003 # HT TIP3
442 148 3 -0.834000 12.493000 9.451000 82.214996 # OT TIP3
443 148 2 0.417000 12.908000 9.840000 82.987000 # HT TIP3
444 148 2 0.417000 12.982000 8.641000 82.039001 # HT TIP3
445 149 3 -0.834000 11.177000 9.610000 87.928001 # OT TIP3
446 149 2 0.417000 10.443000 10.172000 88.053001 # HT TIP3
447 149 2 0.417000 10.866000 8.788000 88.297997 # HT TIP3
448 150 3 -0.834000 1.838000 3.206000 95.398003 # OT TIP3
449 150 2 0.417000 2.201000 4.081000 95.544998 # HT TIP3
450 150 2 0.417000 2.117000 2.999000 94.421997 # HT TIP3
451 151 3 -0.834000 16.132999 12.593000 96.907997 # OT TIP3
452 151 2 0.417000 15.352000 12.769000 96.390999 # HT TIP3
453 151 2 0.417000 15.887000 11.876000 97.511002 # HT TIP3
454 152 3 -0.834000 1.899000 11.624000 97.892998 # OT TIP3
455 152 2 0.417000 1.139000 11.678000 97.305000 # HT TIP3
456 152 2 0.417000 2.258000 12.535000 97.855003 # HT TIP3
457 153 3 -0.834000 3.458000 9.868000 102.418999 # OT TIP3
458 153 2 0.417000 4.398000 10.016000 102.653999 # HT TIP3
459 153 2 0.417000 3.448000 10.189000 101.495003 # HT TIP3
460 154 3 -0.834000 2.924000 4.143000 106.959000 # OT TIP3
461 154 2 0.417000 3.558000 4.546000 106.375999 # HT TIP3
462 154 2 0.417000 2.665000 4.830000 107.592003 # HT TIP3
463 155 3 -0.834000 0.750000 2.938000 113.460999 # OT TIP3
464 155 2 0.417000 0.744000 2.509000 114.315002 # HT TIP3
465 155 2 0.417000 0.391000 3.809000 113.742996 # HT TIP3
466 156 3 -0.834000 10.667000 12.434000 115.502998 # OT TIP3
467 156 2 0.417000 9.874000 12.948000 115.226997 # HT TIP3
468 156 2 0.417000 10.939000 12.945000 116.213997 # HT TIP3
469 157 3 -0.834000 18.441000 16.134001 83.839996 # OT TIP3
470 157 2 0.417000 18.610001 16.488001 82.968002 # HT TIP3
471 157 2 0.417000 19.113001 15.407000 83.960999 # HT TIP3
472 158 3 -0.834000 5.708000 4.426000 104.417999 # OT TIP3
473 158 2 0.417000 6.002000 4.703000 105.300003 # HT TIP3
474 158 2 0.417000 5.157000 5.168000 104.143997 # HT TIP3
475 159 3 -0.834000 16.320999 19.495001 95.870003 # OT TIP3
476 159 2 0.417000 16.959999 19.159000 95.192001 # HT TIP3
477 159 2 0.417000 16.854000 20.132000 96.388000 # HT TIP3
478 160 3 -0.834000 10.295000 14.066000 94.320000 # OT TIP3
479 160 2 0.417000 10.592000 14.067000 95.225998 # HT TIP3
480 160 2 0.417000 9.322000 14.226000 94.349998 # HT TIP3
481 161 3 -0.834000 16.007999 17.797001 91.410004 # OT TIP3
482 161 2 0.417000 16.695000 17.702000 90.683998 # HT TIP3
483 161 2 0.417000 15.186000 17.521000 90.942001 # HT TIP3
484 162 3 -0.834000 15.398000 1.552000 98.246002 # OT TIP3
485 162 2 0.417000 16.016001 1.951000 97.566002 # HT TIP3
486 162 2 0.417000 14.574000 2.011000 98.109001 # HT TIP3
487 163 3 -0.834000 3.055000 12.102000 122.695999 # OT TIP3
488 163 2 0.417000 2.634000 12.194000 123.551003 # HT TIP3
489 163 2 0.417000 2.644000 12.777000 122.190002 # HT TIP3
490 164 3 -0.834000 3.108000 2.203000 125.685997 # OT TIP3
491 164 2 0.417000 3.052000 3.171000 125.502998 # HT TIP3
492 164 2 0.417000 3.146000 2.115000 126.672997 # HT TIP3
493 165 3 -0.834000 7.303000 15.362000 125.029999 # OT TIP3
494 165 2 0.417000 6.624000 15.812000 125.628998 # HT TIP3
495 165 2 0.417000 6.860000 14.595000 124.678001 # HT TIP3
496 166 3 -0.834000 11.769000 15.502000 125.598000 # OT TIP3
497 166 2 0.417000 12.162000 14.620000 125.779999 # HT TIP3
498 166 2 0.417000 11.919000 15.993000 126.378998 # HT TIP3
499 167 3 -0.834000 7.830000 19.750999 81.995003 # OT TIP3
500 167 2 0.417000 7.257000 19.870001 81.247002 # HT TIP3
501 167 2 0.417000 8.329000 18.923000 81.885002 # HT TIP3
502 168 3 -0.834000 13.663000 26.431999 86.528999 # OT TIP3
503 168 2 0.417000 13.851000 26.261000 87.482002 # HT TIP3
504 168 2 0.417000 13.355000 27.375000 86.531998 # HT TIP3
505 169 3 -0.834000 15.027000 11.249000 89.806000 # OT TIP3
506 169 2 0.417000 15.636000 10.953000 89.103996 # HT TIP3
507 169 2 0.417000 14.929000 12.194000 89.544998 # HT TIP3