LAMMPS data file. CGCMM style. atom_style full generated by VMD/TopoTools v1.1 on Sat Jun 30 21:02:21 +0800 2012
 4278 atoms
 2852 bonds
 1426 angles
 0 dihedrals
 0 impropers
 2 atom types
 1 bond types
 1 angle types
 0 dihedral types
 0 improper types
 0.159500 50.859501  xlo xhi
 0.224001 39.024000  ylo yhi
 60.490997 84.490997  zlo zhi

# Pair Coeffs
#
# 1  HT
# 2  OT

# Bond Coeffs
#
# 1  

# Angle Coeffs
#
# 1  unknown

 Masses

 1 1.007940 # HT
 2 15.999400 # OT

 Atoms

1 1 2 -0.834000 3.868000 10.282000 76.403999 # OT TIP3
2 1 1 0.417000 3.424000 10.651000 75.600998 # HT TIP3
3 1 1 0.417000 3.292000 10.579000 77.126999 # HT TIP3
4 2 2 -0.834000 6.233000 5.076000 81.390999 # OT TIP3
5 2 1 0.417000 6.278000 5.424000 82.297997 # HT TIP3
6 2 1 0.417000 6.792000 4.288000 81.460999 # HT TIP3
7 3 2 -0.834000 5.386000 16.896000 72.571999 # OT TIP3
8 3 1 0.417000 6.283000 17.179001 72.316002 # HT TIP3
9 3 1 0.417000 5.537000 16.032000 72.989998 # HT TIP3
10 4 2 -0.834000 8.524000 14.011000 81.832001 # OT TIP3
11 4 1 0.417000 8.833000 13.548000 82.612000 # HT TIP3
12 4 1 0.417000 8.706000 13.316000 81.144997 # HT TIP3
13 5 2 -0.834000 3.986000 16.518000 61.810001 # OT TIP3
14 5 1 0.417000 3.981000 15.588000 61.695999 # HT TIP3
15 5 1 0.417000 4.728000 16.780001 61.280998 # HT TIP3
16 6 2 -0.834000 6.405000 7.191000 78.942001 # OT TIP3
17 6 1 0.417000 6.982000 7.547000 79.652000 # HT TIP3
18 6 1 0.417000 5.509000 7.262000 79.300003 # HT TIP3
19 7 2 -0.834000 16.326000 14.901000 65.077003 # OT TIP3
20 7 1 0.417000 16.270000 14.472000 64.225998 # HT TIP3
21 7 1 0.417000 17.004999 15.654000 64.945000 # HT TIP3
22 8 2 -0.834000 2.950000 9.044000 70.128998 # OT TIP3
23 8 1 0.417000 2.310000 8.490000 70.498001 # HT TIP3
24 8 1 0.417000 2.364000 9.445000 69.461998 # HT TIP3
25 9 2 -0.834000 4.135000 16.395000 82.609001 # OT TIP3
26 9 1 0.417000 5.070000 16.233999 82.485001 # HT TIP3
27 9 1 0.417000 3.855000 15.567000 83.081001 # HT TIP3
28 10 2 -0.834000 10.874000 9.109000 65.486000 # OT TIP3
29 10 1 0.417000 11.198000 9.071000 66.431999 # HT TIP3
30 10 1 0.417000 9.948000 9.470000 65.574997 # HT TIP3
31 11 2 -0.834000 0.202000 5.867000 75.091003 # OT TIP3
32 11 1 0.417000 0.683000 6.190000 74.330002 # HT TIP3
33 11 1 0.417000 0.808000 5.981000 75.847000 # HT TIP3
34 12 2 -0.834000 10.082000 9.356000 75.416000 # OT TIP3
35 12 1 0.417000 9.774000 9.953000 76.097000 # HT TIP3
36 12 1 0.417000 10.221000 8.464000 75.789001 # HT TIP3
37 13 2 -0.834000 13.089000 29.860001 69.586998 # OT TIP3
38 13 1 0.417000 12.778000 29.996000 70.474998 # HT TIP3
39 13 1 0.417000 13.964000 29.537001 69.711998 # HT TIP3
40 14 2 -0.834000 1.861000 6.881000 62.443001 # OT TIP3
41 14 1 0.417000 2.143000 5.939000 62.480999 # HT TIP3
42 14 1 0.417000 0.978000 6.799000 61.983002 # HT TIP3
43 15 2 -0.834000 5.021000 20.802999 71.738998 # OT TIP3
44 15 1 0.417000 5.666000 20.982000 72.462997 # HT TIP3
45 15 1 0.417000 5.584000 21.114000 70.956001 # HT TIP3
46 16 2 -0.834000 15.222000 21.055000 73.331001 # OT TIP3
47 16 1 0.417000 14.422000 21.009001 73.792000 # HT TIP3
48 16 1 0.417000 14.873000 21.257000 72.417999 # HT TIP3
49 17 2 -0.834000 1.539000 3.982000 83.314003 # OT TIP3
50 17 1 0.417000 1.039000 3.625000 82.586998 # HT TIP3
51 17 1 0.417000 1.975000 3.277000 83.638000 # HT TIP3
52 18 2 -0.834000 0.685000 15.337000 82.975998 # OT TIP3
53 18 1 0.417000 0.844000 15.625000 83.848999 # HT TIP3
54 18 1 0.417000 0.512000 16.160999 82.474998 # HT TIP3
55 19 2 -0.834000 5.808000 24.118000 73.459000 # OT TIP3
56 19 1 0.417000 5.040000 23.822001 73.044998 # HT TIP3
57 19 1 0.417000 6.237000 24.535999 72.708000 # HT TIP3
58 20 2 -0.834000 10.626000 7.804000 62.903999 # OT TIP3
59 20 1 0.417000 10.961000 8.601000 62.493999 # HT TIP3
60 20 1 0.417000 10.448000 8.089000 63.807999 # HT TIP3
61 21 2 -0.834000 8.769000 25.884001 72.710999 # OT TIP3
62 21 1 0.417000 9.323000 25.742001 73.514999 # HT TIP3
63 21 1 0.417000 9.005000 26.795000 72.427002 # HT TIP3
64 22 2 -0.834000 4.469000 22.952000 76.764999 # OT TIP3
65 22 1 0.417000 4.349000 23.879999 76.388000 # HT TIP3
66 22 1 0.417000 5.261000 22.996000 77.276001 # HT TIP3
67 23 2 -0.834000 22.771999 6.442000 63.978001 # OT TIP3
68 23 1 0.417000 21.905001 6.045000 64.330002 # HT TIP3
69 23 1 0.417000 23.150999 5.859000 63.358002 # HT TIP3
70 24 2 -0.834000 7.982000 28.546000 81.140999 # OT TIP3
71 24 1 0.417000 8.855000 28.434000 81.613998 # HT TIP3
72 24 1 0.417000 7.869000 29.495001 80.944000 # HT TIP3
73 25 2 -0.834000 11.126000 5.565000 61.518002 # OT TIP3
74 25 1 0.417000 11.338000 4.969000 62.254002 # HT TIP3
75 25 1 0.417000 10.857000 6.412000 61.993000 # HT TIP3
76 26 2 -0.834000 8.847000 4.514000 79.778000 # OT TIP3
77 26 1 0.417000 8.164000 3.811000 79.825996 # HT TIP3
78 26 1 0.417000 8.243000 5.264000 79.653000 # HT TIP3
79 27 2 -0.834000 8.581000 17.518999 83.775002 # OT TIP3
80 27 1 0.417000 7.716000 17.540001 84.195000 # HT TIP3
81 27 1 0.417000 8.631000 18.462999 83.509003 # HT TIP3
82 28 2 -0.834000 16.670000 28.289000 62.681000 # OT TIP3
83 28 1 0.417000 17.054001 27.430000 62.999001 # HT TIP3
84 28 1 0.417000 15.733000 28.056000 62.588001 # HT TIP3
85 29 2 -0.834000 8.576000 33.113998 69.236000 # OT TIP3
86 29 1 0.417000 9.300000 32.483002 69.234001 # HT TIP3
87 29 1 0.417000 9.007000 33.994999 69.068001 # HT TIP3
88 30 2 -0.834000 1.002000 25.284000 66.023003 # OT TIP3
89 30 1 0.417000 0.779000 26.264999 66.004997 # HT TIP3
90 30 1 0.417000 1.995000 25.363001 65.945000 # HT TIP3
91 31 2 -0.834000 4.499000 17.974001 67.668999 # OT TIP3
92 31 1 0.417000 3.503000 18.003000 67.821999 # HT TIP3
93 31 1 0.417000 4.733000 18.955000 67.424004 # HT TIP3
94 32 2 -0.834000 9.092000 13.177000 65.820999 # OT TIP3
95 32 1 0.417000 8.319000 12.678000 65.943001 # HT TIP3
96 32 1 0.417000 9.542000 12.757000 65.036003 # HT TIP3
97 33 2 -0.834000 2.374000 18.667999 62.712002 # OT TIP3
98 33 1 0.417000 2.832000 17.827999 62.702999 # HT TIP3
99 33 1 0.417000 3.131000 19.320000 62.780998 # HT TIP3
100 34 2 -0.834000 5.018000 37.057999 78.287003 # OT TIP3
101 34 1 0.417000 4.346000 36.419998 77.967003 # HT TIP3
102 34 1 0.417000 5.184000 36.799999 79.184998 # HT TIP3
103 35 2 -0.834000 1.531000 36.341999 63.201000 # OT TIP3
104 35 1 0.417000 0.565000 36.331001 63.463001 # HT TIP3
105 35 1 0.417000 1.872000 35.484001 63.533001 # HT TIP3
106 36 2 -0.834000 3.116000 32.112999 69.477997 # OT TIP3
107 36 1 0.417000 3.973000 32.587002 69.515999 # HT TIP3
108 36 1 0.417000 2.425000 32.778999 69.528000 # HT TIP3
109 37 2 -0.834000 9.264000 30.646000 78.195999 # OT TIP3
110 37 1 0.417000 10.096000 30.392000 78.581001 # HT TIP3
111 37 1 0.417000 8.698000 30.830999 78.990997 # HT TIP3
112 38 2 -0.834000 18.620001 32.207001 82.829002 # OT TIP3
113 38 1 0.417000 18.113001 32.009998 83.588997 # HT TIP3
114 38 1 0.417000 19.545000 32.389999 83.162003 # HT TIP3
115 39 2 -0.834000 48.219002 38.931000 75.859001 # OT TIP3
116 39 1 0.417000 47.367001 38.870998 75.357002 # HT TIP3
117 39 1 0.417000 48.256001 37.959999 76.251999 # HT TIP3
118 40 2 -0.834000 0.765000 29.452000 62.083000 # OT TIP3
119 40 1 0.417000 1.663000 29.761999 62.236000 # HT TIP3
120 40 1 0.417000 0.786000 28.535000 62.287998 # HT TIP3
121 41 2 -0.834000 13.812000 17.879999 79.122002 # OT TIP3
122 41 1 0.417000 13.944000 17.614000 80.008003 # HT TIP3
123 41 1 0.417000 14.726000 18.031000 78.847000 # HT TIP3
124 42 2 -0.834000 10.282000 34.874001 72.433998 # OT TIP3
125 42 1 0.417000 10.408000 35.323002 73.294998 # HT TIP3
126 42 1 0.417000 9.648000 35.487999 72.044998 # HT TIP3
127 43 2 -0.834000 6.085000 35.411999 68.063004 # OT TIP3
128 43 1 0.417000 5.709000 36.049000 67.390999 # HT TIP3
129 43 1 0.417000 7.002000 35.278999 67.811996 # HT TIP3
130 44 2 -0.834000 49.895000 33.886002 82.735001 # OT TIP3
131 44 1 0.417000 50.373001 34.324001 81.980003 # HT TIP3
132 44 1 0.417000 50.334000 33.040001 82.847000 # HT TIP3
133 45 2 -0.834000 48.598000 27.035000 82.348000 # OT TIP3
134 45 1 0.417000 48.275002 26.524000 83.085999 # HT TIP3
135 45 1 0.417000 49.466000 27.360001 82.706001 # HT TIP3
136 46 2 -0.834000 8.284000 33.076000 76.323997 # OT TIP3
137 46 1 0.417000 7.343000 33.154999 76.280998 # HT TIP3
138 46 1 0.417000 8.477000 32.433998 76.997002 # HT TIP3
139 47 2 -0.834000 15.614000 6.769000 63.000999 # OT TIP3
140 47 1 0.417000 16.424000 7.058000 62.627998 # HT TIP3
141 47 1 0.417000 15.008000 6.900000 62.171001 # HT TIP3
142 48 2 -0.834000 10.135000 13.076000 70.691002 # OT TIP3
143 48 1 0.417000 9.909000 12.298000 70.134003 # HT TIP3
144 48 1 0.417000 9.672000 12.966000 71.517998 # HT TIP3
145 49 2 -0.834000 7.260000 2.274000 80.330002 # OT TIP3
146 49 1 0.417000 7.850000 1.819000 81.028000 # HT TIP3
147 49 1 0.417000 6.348000 1.996000 80.535004 # HT TIP3
148 50 2 -0.834000 14.091000 2.119000 63.492001 # OT TIP3
149 50 1 0.417000 14.398000 2.881000 63.922001 # HT TIP3
150 50 1 0.417000 13.412000 1.777000 64.078003 # HT TIP3
151 51 2 -0.834000 9.023000 10.781000 69.327003 # OT TIP3
152 51 1 0.417000 8.383000 10.953000 68.648003 # HT TIP3
153 51 1 0.417000 8.589000 10.261000 70.033997 # HT TIP3
154 52 2 -0.834000 9.278000 12.167000 73.234001 # OT TIP3
155 52 1 0.417000 8.428000 11.761000 73.492996 # HT TIP3
156 52 1 0.417000 9.712000 12.394000 74.059998 # HT TIP3
157 53 2 -0.834000 10.482000 0.840000 62.553001 # OT TIP3
158 53 1 0.417000 10.567000 1.159000 63.515999 # HT TIP3
159 53 1 0.417000 9.943000 1.523000 62.167000 # HT TIP3
160 54 2 -0.834000 4.818000 8.325000 68.277000 # OT TIP3
161 54 1 0.417000 5.605000 8.119000 68.814003 # HT TIP3
162 54 1 0.417000 4.202000 8.658000 68.921997 # HT TIP3
163 55 2 -0.834000 3.603000 4.887000 70.315002 # OT TIP3
164 55 1 0.417000 3.309000 5.472000 69.597000 # HT TIP3
165 55 1 0.417000 4.017000 4.173000 69.827003 # HT TIP3
166 56 2 -0.834000 50.638000 3.467000 79.959999 # OT TIP3
167 56 1 0.417000 49.676998 3.373000 79.674004 # HT TIP3
168 56 1 0.417000 50.786999 2.801000 80.684998 # HT TIP3
169 57 2 -0.834000 3.476000 7.665000 79.824997 # OT TIP3
170 57 1 0.417000 2.972000 7.191000 80.463997 # HT TIP3
171 57 1 0.417000 3.804000 8.488000 80.252998 # HT TIP3
172 58 2 -0.834000 3.319000 10.525000 73.657997 # OT TIP3
173 58 1 0.417000 3.798000 11.100000 73.012001 # HT TIP3
174 58 1 0.417000 3.640000 9.630000 73.461998 # HT TIP3
175 59 2 -0.834000 2.578000 6.006000 76.752998 # OT TIP3
176 59 1 0.417000 2.357000 6.361000 77.598999 # HT TIP3
177 59 1 0.417000 3.501000 6.232000 76.625999 # HT TIP3
178 60 2 -0.834000 6.582000 22.471001 62.819000 # OT TIP3
179 60 1 0.417000 5.750000 22.235001 62.347000 # HT TIP3
180 60 1 0.417000 7.059000 21.672001 62.692001 # HT TIP3
181 61 2 -0.834000 32.004002 12.956000 67.552002 # OT TIP3
182 61 1 0.417000 31.743000 13.842000 67.231003 # HT TIP3
183 61 1 0.417000 32.491001 13.130000 68.366997 # HT TIP3
184 62 2 -0.834000 4.217000 4.105000 79.917999 # OT TIP3
185 62 1 0.417000 3.342000 4.242000 79.632004 # HT TIP3
186 62 1 0.417000 4.782000 4.927000 79.794998 # HT TIP3
187 63 2 -0.834000 2.544000 20.672001 82.130997 # OT TIP3
188 63 1 0.417000 3.132000 21.021000 81.445000 # HT TIP3
189 63 1 0.417000 1.667000 20.747999 81.638000 # HT TIP3
190 64 2 -0.834000 20.813000 13.816000 71.566002 # OT TIP3
191 64 1 0.417000 20.938999 14.159000 70.718002 # HT TIP3
192 64 1 0.417000 19.819000 14.016000 71.750000 # HT TIP3
193 65 2 -0.834000 14.726000 10.732000 80.637001 # OT TIP3
194 65 1 0.417000 14.362000 9.933000 81.002998 # HT TIP3
195 65 1 0.417000 14.666000 10.620000 79.694000 # HT TIP3
196 66 2 -0.834000 26.323999 16.794001 77.306999 # OT TIP3
197 66 1 0.417000 27.148001 17.063999 77.744003 # HT TIP3
198 66 1 0.417000 26.337000 17.247999 76.400002 # HT TIP3
199 67 2 -0.834000 9.076000 28.636999 66.079002 # OT TIP3
200 67 1 0.417000 9.427000 27.777000 65.858002 # HT TIP3
201 67 1 0.417000 8.990000 28.598000 67.032997 # HT TIP3
202 68 2 -0.834000 5.773000 15.004000 79.589996 # OT TIP3
203 68 1 0.417000 6.159000 15.539000 80.307999 # HT TIP3
204 68 1 0.417000 6.069000 15.613000 78.831001 # HT TIP3
205 69 2 -0.834000 16.483000 7.554000 83.280998 # OT TIP3
206 69 1 0.417000 15.840000 8.258000 82.948997 # HT TIP3
207 69 1 0.417000 16.173000 6.760000 82.878998 # HT TIP3
208 70 2 -0.834000 23.072001 18.641001 77.288002 # OT TIP3
209 70 1 0.417000 22.400999 18.063999 76.878998 # HT TIP3
210 70 1 0.417000 22.535000 19.181000 77.925003 # HT TIP3
211 71 2 -0.834000 5.658000 13.297000 65.088997 # OT TIP3
212 71 1 0.417000 5.873000 13.219000 64.112000 # HT TIP3
213 71 1 0.417000 5.099000 14.094000 65.156998 # HT TIP3
214 72 2 -0.834000 28.049000 10.068000 79.672997 # OT TIP3
215 72 1 0.417000 27.370001 9.920000 80.362999 # HT TIP3
216 72 1 0.417000 27.603001 10.619000 78.988998 # HT TIP3
217 73 2 -0.834000 4.752000 1.570000 80.830002 # OT TIP3
218 73 1 0.417000 4.474000 2.394000 80.453003 # HT TIP3
219 73 1 0.417000 4.435000 1.001000 80.070999 # HT TIP3
220 74 2 -0.834000 4.794000 25.466000 75.699997 # OT TIP3
221 74 1 0.417000 3.838000 25.700001 75.695999 # HT TIP3
222 74 1 0.417000 4.958000 25.097000 74.811996 # HT TIP3
223 75 2 -0.834000 5.360000 13.944000 68.454002 # OT TIP3
224 75 1 0.417000 6.248000 13.622000 68.707001 # HT TIP3
225 75 1 0.417000 5.208000 14.693000 69.028000 # HT TIP3
226 76 2 -0.834000 10.590000 6.586000 79.328003 # OT TIP3
227 76 1 0.417000 10.888000 6.684000 80.231003 # HT TIP3
228 76 1 0.417000 10.044000 5.789000 79.420998 # HT TIP3
229 77 2 -0.834000 1.878000 22.142000 61.535000 # OT TIP3
230 77 1 0.417000 1.472000 21.480000 62.091999 # HT TIP3
231 77 1 0.417000 1.698000 23.009001 61.993000 # HT TIP3
232 78 2 -0.834000 9.830000 21.747000 63.500000 # OT TIP3
233 78 1 0.417000 9.801000 22.671000 63.143002 # HT TIP3
234 78 1 0.417000 9.487000 21.153999 62.812000 # HT TIP3
235 79 2 -0.834000 0.955000 34.243999 73.422997 # OT TIP3
236 79 1 0.417000 1.578000 34.400002 74.155998 # HT TIP3
237 79 1 0.417000 0.531000 33.421001 73.728996 # HT TIP3
238 80 2 -0.834000 4.591000 29.622999 81.620003 # OT TIP3
239 80 1 0.417000 3.963000 28.999001 82.011002 # HT TIP3
240 80 1 0.417000 4.794000 29.243999 80.708000 # HT TIP3
241 81 2 -0.834000 2.544000 10.771000 63.124001 # OT TIP3
242 81 1 0.417000 2.322000 10.953000 64.053001 # HT TIP3
243 81 1 0.417000 3.147000 9.991000 63.117001 # HT TIP3
244 82 2 -0.834000 2.782000 27.834999 82.563004 # OT TIP3
245 82 1 0.417000 2.026000 27.534000 83.110001 # HT TIP3
246 82 1 0.417000 2.341000 28.073000 81.726997 # HT TIP3
247 83 2 -0.834000 1.023000 23.868000 63.388000 # OT TIP3
248 83 1 0.417000 1.836000 23.516001 63.840000 # HT TIP3
249 83 1 0.417000 0.453000 24.177999 64.139999 # HT TIP3
250 84 2 -0.834000 2.283000 28.532000 67.825996 # OT TIP3
251 84 1 0.417000 1.758000 28.714001 68.614998 # HT TIP3
252 84 1 0.417000 1.696000 27.937000 67.310997 # HT TIP3
253 85 2 -0.834000 13.420000 24.694000 73.592003 # OT TIP3
254 85 1 0.417000 13.091000 25.583000 73.787003 # HT TIP3
255 85 1 0.417000 13.256000 24.118000 74.352997 # HT TIP3
256 86 2 -0.834000 1.195000 28.221001 70.514999 # OT TIP3
257 86 1 0.417000 0.213000 28.181000 70.542999 # HT TIP3
258 86 1 0.417000 1.498000 27.319000 70.763000 # HT TIP3
259 87 2 -0.834000 2.910000 6.385000 68.040001 # OT TIP3
260 87 1 0.417000 2.667000 6.436000 67.060997 # HT TIP3
261 87 1 0.417000 3.610000 7.055000 68.080002 # HT TIP3
262 88 2 -0.834000 7.111000 19.658001 77.834999 # OT TIP3
263 88 1 0.417000 7.717000 20.318001 77.457001 # HT TIP3
264 88 1 0.417000 6.515000 19.336000 77.087997 # HT TIP3
265 89 2 -0.834000 9.539000 38.612999 78.523003 # OT TIP3
266 89 1 0.417000 9.491000 37.924999 79.209000 # HT TIP3
267 89 1 0.417000 10.305000 38.313999 78.011002 # HT TIP3
268 90 2 -0.834000 16.392000 22.603001 64.281998 # OT TIP3
269 90 1 0.417000 16.563000 23.080999 65.122002 # HT TIP3
270 90 1 0.417000 16.627001 23.264999 63.585999 # HT TIP3
271 91 2 -0.834000 13.740000 22.420000 63.248001 # OT TIP3
272 91 1 0.417000 13.165000 22.674999 63.962002 # HT TIP3
273 91 1 0.417000 14.628000 22.604000 63.574001 # HT TIP3
274 92 2 -0.834000 3.205000 34.168999 75.249001 # OT TIP3
275 92 1 0.417000 3.949000 34.408001 74.658997 # HT TIP3
276 92 1 0.417000 3.303000 33.242001 75.425003 # HT TIP3
277 93 2 -0.834000 5.397000 37.939999 81.012001 # OT TIP3
278 93 1 0.417000 5.717000 38.688000 80.528000 # HT TIP3
279 93 1 0.417000 4.438000 38.152000 81.273003 # HT TIP3
280 94 2 -0.834000 8.381000 23.665001 68.137001 # OT TIP3
281 94 1 0.417000 9.207000 24.136999 68.203003 # HT TIP3
282 94 1 0.417000 7.717000 24.316999 67.811996 # HT TIP3
283 95 2 -0.834000 11.129000 14.950000 66.218002 # OT TIP3
284 95 1 0.417000 10.250000 14.741000 65.907997 # HT TIP3
285 95 1 0.417000 11.601000 14.079000 66.217003 # HT TIP3
286 96 2 -0.834000 19.858999 25.752001 77.948997 # OT TIP3
287 96 1 0.417000 20.382000 26.546000 77.999001 # HT TIP3
288 96 1 0.417000 18.934000 26.058001 77.880997 # HT TIP3
289 97 2 -0.834000 7.184000 34.356998 83.547997 # OT TIP3
290 97 1 0.417000 6.418000 34.285000 82.957001 # HT TIP3
291 97 1 0.417000 6.916000 33.807999 84.300003 # HT TIP3
292 98 2 -0.834000 2.286000 25.652000 78.694000 # OT TIP3
293 98 1 0.417000 2.374000 26.122999 77.893997 # HT TIP3
294 98 1 0.417000 1.472000 26.069000 79.103996 # HT TIP3
295 99 2 -0.834000 23.531000 21.819000 78.569000 # OT TIP3
296 99 1 0.417000 23.337000 22.716000 78.956001 # HT TIP3
297 99 1 0.417000 22.863001 21.184999 78.949997 # HT TIP3
298 100 2 -0.834000 9.286000 37.827999 71.361000 # OT TIP3
299 100 1 0.417000 8.801000 38.662998 71.167000 # HT TIP3
300 100 1 0.417000 9.395000 37.882999 72.363998 # HT TIP3
301 101 2 -0.834000 16.707001 17.370001 81.505997 # OT TIP3
302 101 1 0.417000 17.426001 17.205999 80.794998 # HT TIP3
303 101 1 0.417000 16.230000 16.497000 81.582001 # HT TIP3
304 102 2 -0.834000 5.414000 35.928001 62.396000 # OT TIP3
305 102 1 0.417000 5.947000 35.932999 61.598000 # HT TIP3
306 102 1 0.417000 4.789000 36.661999 62.167999 # HT TIP3
307 103 2 -0.834000 22.155001 32.345001 72.620003 # OT TIP3
308 103 1 0.417000 22.228001 32.957001 73.325996 # HT TIP3
309 103 1 0.417000 22.902000 32.599998 71.999001 # HT TIP3
310 104 2 -0.834000 7.635000 31.316000 80.599998 # OT TIP3
311 104 1 0.417000 6.778000 31.464001 80.166000 # HT TIP3
312 104 1 0.417000 7.514000 31.742001 81.514000 # HT TIP3
313 105 2 -0.834000 11.637000 33.994999 80.448997 # OT TIP3
314 105 1 0.417000 11.092000 33.828999 79.666000 # HT TIP3
315 105 1 0.417000 11.076000 33.921001 81.259003 # HT TIP3
316 106 2 -0.834000 7.000000 37.316002 83.152000 # OT TIP3
317 106 1 0.417000 7.103000 36.338001 83.327003 # HT TIP3
318 106 1 0.417000 6.429000 37.368999 82.407997 # HT TIP3
319 107 2 -0.834000 4.151000 32.692001 80.598999 # OT TIP3
320 107 1 0.417000 4.155000 31.969999 79.892998 # HT TIP3
321 107 1 0.417000 3.317000 32.481998 81.045998 # HT TIP3
322 108 2 -0.834000 4.262000 33.959999 66.141998 # OT TIP3
323 108 1 0.417000 3.884000 34.507999 66.862999 # HT TIP3
324 108 1 0.417000 3.494000 33.452999 65.882004 # HT TIP3
325 109 2 -0.834000 11.813000 35.032001 76.445999 # OT TIP3
326 109 1 0.417000 11.869000 34.075001 76.705002 # HT TIP3
327 109 1 0.417000 11.048000 35.306999 76.886002 # HT TIP3
328 110 2 -0.834000 6.803000 37.268002 74.156998 # OT TIP3
329 110 1 0.417000 7.048000 36.869999 74.949997 # HT TIP3
330 110 1 0.417000 6.914000 38.236000 74.364998 # HT TIP3
331 111 2 -0.834000 0.947000 4.669000 71.079002 # OT TIP3
332 111 1 0.417000 0.626000 3.768000 70.838997 # HT TIP3
333 111 1 0.417000 1.705000 4.785000 70.489998 # HT TIP3
334 112 2 -0.834000 5.556000 5.588000 76.545998 # OT TIP3
335 112 1 0.417000 6.084000 6.264000 76.960999 # HT TIP3
336 112 1 0.417000 5.792000 4.822000 77.037003 # HT TIP3
337 113 2 -0.834000 10.904000 6.921000 76.383003 # OT TIP3
338 113 1 0.417000 11.101000 7.112000 77.335999 # HT TIP3
339 113 1 0.417000 10.327000 6.172000 76.498001 # HT TIP3
340 114 2 -0.834000 27.097000 12.294000 61.179001 # OT TIP3
341 114 1 0.417000 26.714001 11.480000 60.804001 # HT TIP3
342 114 1 0.417000 28.075001 12.127000 61.053001 # HT TIP3
343 115 2 -0.834000 11.963000 19.813999 70.458000 # OT TIP3
344 115 1 0.417000 12.479000 20.605000 70.365997 # HT TIP3
345 115 1 0.417000 12.635000 19.105000 70.401001 # HT TIP3
346 116 2 -0.834000 7.227000 2.424000 73.911003 # OT TIP3
347 116 1 0.417000 6.385000 3.001000 74.035004 # HT TIP3
348 116 1 0.417000 6.892000 1.603000 74.241997 # HT TIP3
349 117 2 -0.834000 18.011999 5.971000 66.375999 # OT TIP3
350 117 1 0.417000 17.420000 6.516000 65.879997 # HT TIP3
351 117 1 0.417000 17.750999 5.069000 66.168999 # HT TIP3
352 118 2 -0.834000 4.228000 7.899000 73.276001 # OT TIP3
353 118 1 0.417000 4.777000 7.393000 72.638000 # HT TIP3
354 118 1 0.417000 3.371000 7.520000 73.043999 # HT TIP3
355 119 2 -0.834000 22.333000 3.086000 80.343002 # OT TIP3
356 119 1 0.417000 23.129000 2.796000 80.762001 # HT TIP3
357 119 1 0.417000 21.686001 3.028000 81.060997 # HT TIP3
358 120 2 -0.834000 12.693000 9.651000 62.715000 # OT TIP3
359 120 1 0.417000 13.108000 10.040000 63.487000 # HT TIP3
360 120 1 0.417000 13.182000 8.841000 62.539001 # HT TIP3
361 121 2 -0.834000 11.377000 9.810000 68.428001 # OT TIP3
362 121 1 0.417000 10.643000 10.372000 68.553001 # HT TIP3
363 121 1 0.417000 11.066000 8.988000 68.797997 # HT TIP3
364 122 2 -0.834000 2.038000 3.406000 75.898003 # OT TIP3
365 122 1 0.417000 2.401000 4.281000 76.044998 # HT TIP3
366 122 1 0.417000 2.317000 3.199000 74.921997 # HT TIP3
367 123 2 -0.834000 16.333000 12.793000 77.407997 # OT TIP3
368 123 1 0.417000 15.552000 12.969000 76.890999 # HT TIP3
369 123 1 0.417000 16.087000 12.076000 78.011002 # HT TIP3
370 124 2 -0.834000 2.099000 11.824000 78.392998 # OT TIP3
371 124 1 0.417000 1.339000 11.878000 77.805000 # HT TIP3
372 124 1 0.417000 2.458000 12.735000 78.355003 # HT TIP3
373 125 2 -0.834000 9.420000 14.104000 77.839996 # OT TIP3
374 125 1 0.417000 10.262000 14.398000 78.237999 # HT TIP3
375 125 1 0.417000 9.594000 13.199000 77.601997 # HT TIP3
376 126 2 -0.834000 3.658000 10.068000 82.918999 # OT TIP3
377 126 1 0.417000 4.598000 10.216000 83.153999 # HT TIP3
378 126 1 0.417000 3.648000 10.389000 81.995003 # HT TIP3
379 127 2 -0.834000 18.641001 16.334000 64.339996 # OT TIP3
380 127 1 0.417000 18.809999 16.688000 63.467999 # HT TIP3
381 127 1 0.417000 19.313000 15.607000 64.460999 # HT TIP3
382 128 2 -0.834000 15.630000 3.474000 67.906998 # OT TIP3
383 128 1 0.417000 15.658000 2.941000 68.656998 # HT TIP3
384 128 1 0.417000 16.132999 2.940000 67.269997 # HT TIP3
385 129 2 -0.834000 13.334000 4.735000 67.058998 # OT TIP3
386 129 1 0.417000 12.634000 4.132000 67.438004 # HT TIP3
387 129 1 0.417000 14.159000 4.362000 67.464996 # HT TIP3
388 130 2 -0.834000 16.521000 19.695000 76.370003 # OT TIP3
389 130 1 0.417000 17.160000 19.358999 75.692001 # HT TIP3
390 130 1 0.417000 17.054001 20.332001 76.888000 # HT TIP3
391 131 2 -0.834000 10.495000 14.266000 74.820000 # OT TIP3
392 131 1 0.417000 10.792000 14.267000 75.725998 # HT TIP3
393 131 1 0.417000 9.522000 14.426000 74.849998 # HT TIP3
394 132 2 -0.834000 16.208000 17.997000 71.910004 # OT TIP3
395 132 1 0.417000 16.895000 17.902000 71.183998 # HT TIP3
396 132 1 0.417000 15.386000 17.721001 71.442001 # HT TIP3
397 133 2 -0.834000 15.598000 1.752000 78.746002 # OT TIP3
398 133 1 0.417000 16.216000 2.151000 78.066002 # HT TIP3
399 133 1 0.417000 14.774000 2.211000 78.609001 # HT TIP3
400 134 2 -0.834000 8.030000 19.951000 62.494999 # OT TIP3
401 134 1 0.417000 7.457000 20.070000 61.747002 # HT TIP3
402 134 1 0.417000 8.529000 19.122999 62.384998 # HT TIP3
403 135 2 -0.834000 13.863000 26.632000 67.028999 # OT TIP3
404 135 1 0.417000 14.051000 26.461000 67.982002 # HT TIP3
405 135 1 0.417000 13.555000 27.575001 67.031998 # HT TIP3
406 136 2 -0.834000 15.227000 11.449000 70.306000 # OT TIP3
407 136 1 0.417000 15.836000 11.153000 69.603996 # HT TIP3
408 136 1 0.417000 15.129000 12.394000 70.044998 # HT TIP3
409 137 2 -0.834000 10.474000 11.648000 81.459000 # OT TIP3
410 137 1 0.417000 11.093000 11.273000 82.153999 # HT TIP3
411 137 1 0.417000 10.544000 11.091000 80.737999 # HT TIP3
412 138 2 -0.834000 11.673000 6.275000 82.202003 # OT TIP3
413 138 1 0.417000 12.246000 5.867000 82.931000 # HT TIP3
414 138 1 0.417000 10.754000 6.139000 82.599998 # HT TIP3
415 139 2 -0.834000 31.068001 28.934000 63.230999 # OT TIP3
416 139 1 0.417000 31.191000 29.622000 62.519001 # HT TIP3
417 139 1 0.417000 31.715000 28.243000 62.984001 # HT TIP3
418 140 2 -0.834000 14.112000 26.662001 62.785999 # OT TIP3
419 140 1 0.417000 13.867000 27.587999 63.039001 # HT TIP3
420 140 1 0.417000 13.688000 26.115999 63.500000 # HT TIP3
421 141 2 -0.834000 11.365000 33.060001 61.835999 # OT TIP3
422 141 1 0.417000 11.583000 32.235001 61.473999 # HT TIP3
423 141 1 0.417000 11.106000 32.868999 62.741001 # HT TIP3
424 142 2 -0.834000 24.649000 36.599998 68.384003 # OT TIP3
425 142 1 0.417000 25.634001 36.750999 68.357002 # HT TIP3
426 142 1 0.417000 24.341999 36.532001 67.442001 # HT TIP3
427 143 2 -0.834000 14.535000 35.196999 76.158997 # OT TIP3
428 143 1 0.417000 13.564000 35.068001 76.238998 # HT TIP3
429 143 1 0.417000 14.610000 35.430000 75.221001 # HT TIP3
430 144 2 -0.834000 21.208000 3.470000 75.672997 # OT TIP3
431 144 1 0.417000 20.590000 4.236000 75.584000 # HT TIP3
432 144 1 0.417000 21.968000 3.792000 75.249001 # HT TIP3
433 145 2 -0.834000 7.000000 16.858999 77.683998 # OT TIP3
434 145 1 0.417000 7.343000 16.849001 76.827003 # HT TIP3
435 145 1 0.417000 7.309000 17.702000 78.068001 # HT TIP3
436 146 2 -0.834000 14.803000 18.309999 63.713001 # OT TIP3
437 146 1 0.417000 14.475000 17.855000 64.462997 # HT TIP3
438 146 1 0.417000 14.042000 18.806000 63.377998 # HT TIP3
439 147 2 -0.834000 4.953000 20.339001 65.974998 # OT TIP3
440 147 1 0.417000 4.969000 21.253000 66.346001 # HT TIP3
441 147 1 0.417000 5.863000 20.231001 65.700996 # HT TIP3
442 148 2 -0.834000 1.815000 17.555000 74.855003 # OT TIP3
443 148 1 0.417000 1.425000 16.680000 74.919998 # HT TIP3
444 148 1 0.417000 1.059000 18.184000 74.551003 # HT TIP3
445 149 2 -0.834000 11.287000 15.987000 80.650002 # OT TIP3
446 149 1 0.417000 11.421000 15.077000 80.197998 # HT TIP3
447 149 1 0.417000 12.136000 16.139999 81.091003 # HT TIP3
448 150 2 -0.834000 22.778000 23.865000 83.728996 # OT TIP3
449 150 1 0.417000 23.596001 23.698999 83.234001 # HT TIP3
450 150 1 0.417000 22.120001 23.975000 83.060997 # HT TIP3
451 151 2 -0.834000 9.984000 18.260000 76.939003 # OT TIP3
452 151 1 0.417000 10.776000 18.365999 76.421997 # HT TIP3
453 151 1 0.417000 10.141000 18.784000 77.734001 # HT TIP3
454 152 2 -0.834000 2.569000 19.820000 71.337997 # OT TIP3
455 152 1 0.417000 2.251000 19.625000 72.200996 # HT TIP3
456 152 1 0.417000 3.547000 19.917000 71.422997 # HT TIP3
457 153 2 -0.834000 15.358000 15.418000 61.952999 # OT TIP3
458 153 1 0.417000 15.486000 16.323000 61.660000 # HT TIP3
459 153 1 0.417000 14.375000 15.419000 62.087002 # HT TIP3
460 154 2 -0.834000 8.129000 9.801000 64.821999 # OT TIP3
461 154 1 0.417000 7.564000 10.540000 64.412003 # HT TIP3
462 154 1 0.417000 7.518000 9.211000 65.320000 # HT TIP3
463 155 2 -0.834000 10.409000 27.135000 62.473000 # OT TIP3
464 155 1 0.417000 9.597000 27.488001 62.020000 # HT TIP3
465 155 1 0.417000 10.723000 27.872000 63.124001 # HT TIP3
466 156 2 -0.834000 7.325000 26.208000 76.705002 # OT TIP3
467 156 1 0.417000 7.505000 27.112000 76.494003 # HT TIP3
468 156 1 0.417000 6.485000 26.089001 76.234001 # HT TIP3
469 157 2 -0.834000 11.785000 23.320999 79.955002 # OT TIP3
470 157 1 0.417000 12.613000 23.405001 80.482002 # HT TIP3
471 157 1 0.417000 11.016000 23.466000 80.595001 # HT TIP3
472 158 2 -0.834000 21.233000 28.160000 78.093002 # OT TIP3
473 158 1 0.417000 21.233000 29.156000 78.121002 # HT TIP3
474 158 1 0.417000 22.125000 27.976999 77.675003 # HT TIP3
475 159 2 -0.834000 8.657000 31.211000 61.360001 # OT TIP3
476 159 1 0.417000 8.444000 31.864000 62.014000 # HT TIP3
477 159 1 0.417000 8.009000 30.504999 61.567001 # HT TIP3
478 160 2 -0.834000 19.601000 37.061001 84.348000 # OT TIP3
479 160 1 0.417000 19.587999 38.033001 84.151001 # HT TIP3
480 160 1 0.417000 19.174999 36.653999 83.526001 # HT TIP3
481 161 2 -0.834000 6.449000 27.934999 74.167999 # OT TIP3
482 161 1 0.417000 6.663000 28.558001 73.498001 # HT TIP3
483 161 1 0.417000 7.290000 27.443001 74.348000 # HT TIP3
484 162 2 -0.834000 13.955000 25.993999 70.019997 # OT TIP3
485 162 1 0.417000 13.026000 25.868999 70.266998 # HT TIP3
486 162 1 0.417000 14.348000 25.951000 70.874001 # HT TIP3
487 163 2 -0.834000 2.720000 30.870001 66.757004 # OT TIP3
488 163 1 0.417000 2.872000 29.951000 66.936996 # HT TIP3
489 163 1 0.417000 2.616000 31.350000 67.644997 # HT TIP3
490 164 2 -0.834000 20.032000 29.992001 66.019997 # OT TIP3
491 164 1 0.417000 20.473000 30.562000 66.693001 # HT TIP3
492 164 1 0.417000 19.566999 29.382999 66.549004 # HT TIP3
493 165 2 -0.834000 3.459000 29.955000 70.977997 # OT TIP3
494 165 1 0.417000 3.577000 30.514000 70.223000 # HT TIP3
495 165 1 0.417000 2.698000 29.424000 70.642998 # HT TIP3
496 166 2 -0.834000 12.029000 37.798000 81.808998 # OT TIP3
497 166 1 0.417000 11.397000 37.828999 82.573997 # HT TIP3
498 166 1 0.417000 11.814000 38.598999 81.339996 # HT TIP3
499 167 2 -0.834000 6.903000 26.792999 65.348000 # OT TIP3
500 167 1 0.417000 7.607000 27.407000 65.261002 # HT TIP3
501 167 1 0.417000 6.916000 26.268000 64.513000 # HT TIP3
502 168 2 -0.834000 21.570999 18.084999 66.375000 # OT TIP3
503 168 1 0.417000 20.931000 17.389999 66.700996 # HT TIP3
504 168 1 0.417000 22.357000 17.971001 66.878998 # HT TIP3
505 169 2 -0.834000 21.252001 14.690000 64.792000 # OT TIP3
506 169 1 0.417000 20.864000 14.225000 65.509003 # HT TIP3
507 169 1 0.417000 21.990999 15.206000 65.247002 # HT TIP3
508 170 2 -0.834000 1.931000 31.679001 81.504997 # OT TIP3
509 170 1 0.417000 2.082000 31.062000 80.848000 # HT TIP3
510 170 1 0.417000 1.961000 31.176001 82.352997 # HT TIP3
511 171 2 -0.834000 45.091999 29.954000 74.186996 # OT TIP3