LAMMPS data file. CGCMM style. atom_style full generated by VMD/TopoTools v1.1 on Mon Jul 02 09:39:27 +0800 2012
 8223 atoms
 5482 bonds
 2741 angles
 0 dihedrals
 0 impropers
 2 atom types
 1 bond types
 1 angle types
 0 dihedral types
 0 improper types
 0.981499 49.981499  xlo xhi
 1.000501 38.200502  ylo yhi
 61.039497 109.039497  zlo zhi

# Pair Coeffs
#
# 1  HT
# 2  OT

# Bond Coeffs
#
# 1  

# Angle Coeffs
#
# 1  unknown

 Masses

 1 1.007940 # HT
 2 15.999400 # OT

 Atoms

1 1 2 -0.834000 4.668000 11.082000 76.903999 # OT TIP3
2 1 1 0.417000 4.224000 11.451000 76.100998 # HT TIP3
3 1 1 0.417000 4.092000 11.379000 77.626999 # HT TIP3
4 2 2 -0.834000 7.033000 5.876000 81.890999 # OT TIP3
5 2 1 0.417000 7.078000 6.224000 82.797997 # HT TIP3
6 2 1 0.417000 7.592000 5.088000 81.960999 # HT TIP3
7 3 2 -0.834000 5.569000 4.960000 90.887001 # OT TIP3
8 3 1 0.417000 4.959000 4.160000 90.980003 # HT TIP3
9 3 1 0.417000 4.995000 5.655000 90.421997 # HT TIP3
10 4 2 -0.834000 1.975000 15.007000 99.567001 # OT TIP3
11 4 1 0.417000 2.137000 14.263000 98.966003 # HT TIP3
12 4 1 0.417000 1.619000 14.539000 100.360001 # HT TIP3
13 5 2 -0.834000 6.186000 17.695999 73.071999 # OT TIP3
14 5 1 0.417000 7.083000 17.979000 72.816002 # HT TIP3
15 5 1 0.417000 6.337000 16.832001 73.489998 # HT TIP3
16 6 2 -0.834000 15.437000 6.794000 91.556000 # OT TIP3
17 6 1 0.417000 14.524000 6.319000 91.531998 # HT TIP3
18 6 1 0.417000 15.984000 6.113000 91.973000 # HT TIP3
19 7 2 -0.834000 9.324000 14.811000 82.332001 # OT TIP3
20 7 1 0.417000 9.633000 14.348000 83.112000 # HT TIP3
21 7 1 0.417000 9.506000 14.116000 81.644997 # HT TIP3
22 8 2 -0.834000 12.462000 27.025999 92.373001 # OT TIP3
23 8 1 0.417000 12.386000 27.695000 93.075996 # HT TIP3
24 8 1 0.417000 11.619000 27.080000 91.935997 # HT TIP3
25 9 2 -0.834000 4.786000 17.318001 62.310001 # OT TIP3
26 9 1 0.417000 4.781000 16.388000 62.195999 # HT TIP3
27 9 1 0.417000 5.528000 17.580000 61.780998 # HT TIP3
28 10 2 -0.834000 7.205000 7.991000 79.442001 # OT TIP3
29 10 1 0.417000 7.782000 8.347000 80.152000 # HT TIP3
30 10 1 0.417000 6.309000 8.062000 79.800003 # HT TIP3
31 11 2 -0.834000 17.125999 15.701000 65.577003 # OT TIP3
32 11 1 0.417000 17.070000 15.272000 64.725998 # HT TIP3
33 11 1 0.417000 17.805000 16.454000 65.445000 # HT TIP3
34 12 2 -0.834000 3.750000 9.844000 70.628998 # OT TIP3
35 12 1 0.417000 3.110000 9.290000 70.998001 # HT TIP3
36 12 1 0.417000 3.164000 10.245000 69.961998 # HT TIP3
37 13 2 -0.834000 4.935000 17.195000 83.109001 # OT TIP3
38 13 1 0.417000 5.870000 17.034000 82.985001 # HT TIP3
39 13 1 0.417000 4.655000 16.367001 83.581001 # HT TIP3
40 14 2 -0.834000 3.991000 12.162000 88.860001 # OT TIP3
41 14 1 0.417000 4.594000 11.968000 88.128998 # HT TIP3
42 14 1 0.417000 3.414000 12.775000 88.430000 # HT TIP3
43 15 2 -0.834000 5.240000 8.037000 88.081001 # OT TIP3
44 15 1 0.417000 5.656000 8.831000 87.657997 # HT TIP3
45 15 1 0.417000 4.786000 8.428000 88.811996 # HT TIP3
46 16 2 -0.834000 8.172000 7.999000 99.581001 # OT TIP3
47 16 1 0.417000 8.040000 8.550000 100.327003 # HT TIP3
48 16 1 0.417000 7.244000 7.756000 99.263000 # HT TIP3
49 17 2 -0.834000 11.674000 9.909000 65.986000 # OT TIP3
50 17 1 0.417000 11.998000 9.871000 66.931999 # HT TIP3
51 17 1 0.417000 10.748000 10.270000 66.074997 # HT TIP3
52 18 2 -0.834000 1.002000 6.667000 75.591003 # OT TIP3
53 18 1 0.417000 1.483000 6.990000 74.830002 # HT TIP3
54 18 1 0.417000 1.608000 6.781000 76.347000 # HT TIP3
55 19 2 -0.834000 10.882000 10.156000 75.916000 # OT TIP3
56 19 1 0.417000 10.574000 10.753000 76.597000 # HT TIP3
57 19 1 0.417000 11.021000 9.264000 76.289001 # HT TIP3
58 20 2 -0.834000 8.964000 7.107000 90.453003 # OT TIP3
59 20 1 0.417000 9.242000 6.206000 90.598999 # HT TIP3
60 20 1 0.417000 9.422000 7.545000 91.237000 # HT TIP3
61 21 2 -0.834000 25.177000 15.271000 99.125999 # OT TIP3
62 21 1 0.417000 24.534000 14.942000 98.459000 # HT TIP3
63 21 1 0.417000 26.062000 15.082000 98.681999 # HT TIP3
64 22 2 -0.834000 7.316000 6.288000 88.495003 # OT TIP3
65 22 1 0.417000 7.640000 6.631000 89.362999 # HT TIP3
66 22 1 0.417000 6.563000 6.852000 88.279999 # HT TIP3
67 23 2 -0.834000 13.889000 30.660000 70.086998 # OT TIP3
68 23 1 0.417000 13.578000 30.796000 70.974998 # HT TIP3
69 23 1 0.417000 14.764000 30.337000 70.211998 # HT TIP3
70 24 2 -0.834000 2.661000 7.681000 62.943001 # OT TIP3
71 24 1 0.417000 2.943000 6.739000 62.980999 # HT TIP3
72 24 1 0.417000 1.778000 7.599000 62.483002 # HT TIP3
73 25 2 -0.834000 5.821000 21.603001 72.238998 # OT TIP3
74 25 1 0.417000 6.466000 21.782000 72.962997 # HT TIP3
75 25 1 0.417000 6.384000 21.914000 71.456001 # HT TIP3
76 26 2 -0.834000 16.021999 21.855000 73.831001 # OT TIP3
77 26 1 0.417000 15.222000 21.809000 74.292000 # HT TIP3
78 26 1 0.417000 15.673000 22.056999 72.917999 # HT TIP3
79 27 2 -0.834000 2.339000 4.782000 83.814003 # OT TIP3
80 27 1 0.417000 1.839000 4.425000 83.086998 # HT TIP3
81 27 1 0.417000 2.775000 4.077000 84.138000 # HT TIP3
82 28 2 -0.834000 1.485000 16.136999 83.475998 # OT TIP3
83 28 1 0.417000 1.644000 16.424999 84.348999 # HT TIP3
84 28 1 0.417000 1.312000 16.961000 82.974998 # HT TIP3
85 29 2 -0.834000 14.143000 14.795000 94.478996 # OT TIP3
86 29 1 0.417000 13.931000 14.553000 95.356003 # HT TIP3
87 29 1 0.417000 14.523000 15.662000 94.518997 # HT TIP3
88 30 2 -0.834000 13.421000 21.594999 92.343002 # OT TIP3
89 30 1 0.417000 13.330000 21.621000 93.303001 # HT TIP3
90 30 1 0.417000 13.281000 22.525999 92.063004 # HT TIP3
91 31 2 -0.834000 10.955000 18.632999 102.207001 # OT TIP3
92 31 1 0.417000 10.041000 18.861000 102.366997 # HT TIP3
93 31 1 0.417000 11.205000 17.962999 102.947998 # HT TIP3
94 32 2 -0.834000 6.608000 24.917999 73.959000 # OT TIP3
95 32 1 0.417000 5.840000 24.622000 73.544998 # HT TIP3
96 32 1 0.417000 7.037000 25.336000 73.208000 # HT TIP3
97 33 2 -0.834000 11.426000 8.604000 63.403999 # OT TIP3
98 33 1 0.417000 11.761000 9.401000 62.993999 # HT TIP3
99 33 1 0.417000 11.248000 8.889000 64.307999 # HT TIP3
100 34 2 -0.834000 9.569000 26.684000 73.210999 # OT TIP3
101 34 1 0.417000 10.123000 26.542000 74.014999 # HT TIP3
102 34 1 0.417000 9.805000 27.594999 72.927002 # HT TIP3
103 35 2 -0.834000 5.269000 23.752001 77.264999 # OT TIP3
104 35 1 0.417000 5.149000 24.680000 76.888000 # HT TIP3
105 35 1 0.417000 6.061000 23.796000 77.776001 # HT TIP3
106 36 2 -0.834000 4.599000 14.689000 84.583000 # OT TIP3
107 36 1 0.417000 4.430000 13.876000 85.061996 # HT TIP3
108 36 1 0.417000 5.561000 14.769000 84.661003 # HT TIP3
109 37 2 -0.834000 20.952000 2.961000 87.164001 # OT TIP3
110 37 1 0.417000 21.414000 2.079000 87.079002 # HT TIP3
111 37 1 0.417000 21.667000 3.653000 87.013000 # HT TIP3
112 38 2 -0.834000 24.517000 12.039000 103.783997 # OT TIP3
113 38 1 0.417000 23.687000 11.572000 103.893997 # HT TIP3
114 38 1 0.417000 25.010000 11.506000 104.361000 # HT TIP3
115 39 2 -0.834000 23.572001 7.242000 64.477997 # OT TIP3
116 39 1 0.417000 22.705000 6.845000 64.830002 # HT TIP3
117 39 1 0.417000 23.951000 6.659000 63.858002 # HT TIP3
118 40 2 -0.834000 8.782000 29.346001 81.640999 # OT TIP3
119 40 1 0.417000 9.655000 29.233999 82.113998 # HT TIP3
120 40 1 0.417000 8.669000 30.295000 81.444000 # HT TIP3
121 41 2 -0.834000 11.926000 6.365000 62.018002 # OT TIP3
122 41 1 0.417000 12.138000 5.769000 62.754002 # HT TIP3
123 41 1 0.417000 11.657000 7.212000 62.493000 # HT TIP3
124 42 2 -0.834000 39.680000 25.645000 86.755997 # OT TIP3
125 42 1 0.417000 39.620998 26.384001 86.135002 # HT TIP3
126 42 1 0.417000 40.060001 25.974001 87.580002 # HT TIP3
127 43 2 -0.834000 9.647000 5.314000 80.278000 # OT TIP3
128 43 1 0.417000 8.964000 4.611000 80.325996 # HT TIP3
129 43 1 0.417000 9.043000 6.064000 80.153000 # HT TIP3
130 44 2 -0.834000 9.381000 18.319000 84.275002 # OT TIP3
131 44 1 0.417000 8.516000 18.340000 84.695000 # HT TIP3
132 44 1 0.417000 9.431000 19.263000 84.009003 # HT TIP3
133 45 2 -0.834000 5.342000 12.388000 86.271004 # OT TIP3
134 45 1 0.417000 5.842000 11.697000 86.678001 # HT TIP3
135 45 1 0.417000 5.903000 13.148000 86.578003 # HT TIP3
136 46 2 -0.834000 2.670000 16.674999 90.166000 # OT TIP3
137 46 1 0.417000 3.120000 16.950001 90.973999 # HT TIP3
138 46 1 0.417000 1.763000 16.517000 90.468002 # HT TIP3
139 47 2 -0.834000 17.469999 29.089001 63.181000 # OT TIP3
140 47 1 0.417000 17.854000 28.230000 63.499001 # HT TIP3
141 47 1 0.417000 16.533001 28.856001 63.088001 # HT TIP3
142 48 2 -0.834000 9.376000 33.914001 69.736000 # OT TIP3
143 48 1 0.417000 10.100000 33.283001 69.734001 # HT TIP3
144 48 1 0.417000 9.807000 34.794998 69.568001 # HT TIP3
145 49 2 -0.834000 1.802000 26.084000 66.523003 # OT TIP3
146 49 1 0.417000 1.579000 27.065001 66.504997 # HT TIP3
147 49 1 0.417000 2.795000 26.163000 66.445000 # HT TIP3
148 50 2 -0.834000 5.299000 18.774000 68.168999 # OT TIP3
149 50 1 0.417000 4.303000 18.802999 68.321999 # HT TIP3
150 50 1 0.417000 5.533000 19.754999 67.924004 # HT TIP3
151 51 2 -0.834000 9.892000 13.977000 66.320999 # OT TIP3
152 51 1 0.417000 9.119000 13.478000 66.443001 # HT TIP3
153 51 1 0.417000 10.342000 13.557000 65.536003 # HT TIP3
154 52 2 -0.834000 3.708000 21.969000 85.503998 # OT TIP3
155 52 1 0.417000 3.589000 21.945000 84.556000 # HT TIP3
156 52 1 0.417000 4.123000 22.834999 85.549004 # HT TIP3
157 53 2 -0.834000 3.428000 13.731000 91.487000 # OT TIP3
158 53 1 0.417000 3.719000 13.073000 90.830002 # HT TIP3
159 53 1 0.417000 3.582000 14.542000 91.008003 # HT TIP3
160 54 2 -0.834000 12.281000 32.585999 85.225998 # OT TIP3
161 54 1 0.417000 12.147000 31.638000 85.047997 # HT TIP3
162 54 1 0.417000 13.131000 32.561001 85.702003 # HT TIP3
163 55 2 -0.834000 14.773000 18.596001 108.113998 # OT TIP3
164 55 1 0.417000 13.829000 18.724001 108.223999 # HT TIP3
165 55 1 0.417000 15.043000 18.148001 108.974998 # HT TIP3
166 56 2 -0.834000 11.692000 36.851002 104.143997 # OT TIP3
167 56 1 0.417000 11.789000 36.601002 103.237000 # HT TIP3
168 56 1 0.417000 11.703000 36.033001 104.642998 # HT TIP3
169 57 2 -0.834000 3.174000 19.468000 63.212002 # OT TIP3
170 57 1 0.417000 3.632000 18.628000 63.202999 # HT TIP3
171 57 1 0.417000 3.931000 20.120001 63.280998 # HT TIP3
172 58 2 -0.834000 6.048000 10.046000 97.578003 # OT TIP3
173 58 1 0.417000 6.064000 10.889000 98.058998 # HT TIP3
174 58 1 0.417000 5.622000 10.224000 96.742996 # HT TIP3
175 59 2 -0.834000 5.818000 37.858002 78.787003 # OT TIP3
176 59 1 0.417000 5.146000 37.220001 78.467003 # HT TIP3
177 59 1 0.417000 5.984000 37.599998 79.684998 # HT TIP3
178 60 2 -0.834000 10.586000 36.305000 97.263000 # OT TIP3
179 60 1 0.417000 10.953000 36.826000 98.009003 # HT TIP3
180 60 1 0.417000 11.263000 36.511002 96.530998 # HT TIP3
181 61 2 -0.834000 13.390000 28.306999 98.360001 # OT TIP3
182 61 1 0.417000 12.845000 29.113001 98.292999 # HT TIP3
183 61 1 0.417000 13.045000 27.920000 99.175003 # HT TIP3
184 62 2 -0.834000 2.331000 37.141998 63.701000 # OT TIP3
185 62 1 0.417000 1.365000 37.131001 63.963001 # HT TIP3
186 62 1 0.417000 2.672000 36.284000 64.032997 # HT TIP3
187 63 2 -0.834000 3.916000 32.912998 69.977997 # OT TIP3
188 63 1 0.417000 4.773000 33.387001 70.015999 # HT TIP3
189 63 1 0.417000 3.225000 33.578999 70.028000 # HT TIP3
190 64 2 -0.834000 19.870001 22.459999 89.971001 # OT TIP3
191 64 1 0.417000 18.903000 22.288000 89.721001 # HT TIP3
192 64 1 0.417000 20.073999 21.691000 90.591003 # HT TIP3
193 65 2 -0.834000 7.079000 34.355999 86.597000 # OT TIP3
194 65 1 0.417000 7.483000 34.937000 87.264999 # HT TIP3
195 65 1 0.417000 6.182000 34.791000 86.496002 # HT TIP3
196 66 2 -0.834000 4.522000 30.694000 88.275002 # OT TIP3
197 66 1 0.417000 3.979000 30.239000 89.035004 # HT TIP3
198 66 1 0.417000 3.890000 31.250000 87.887001 # HT TIP3
199 67 2 -0.834000 16.344000 35.737999 93.731003 # OT TIP3
200 67 1 0.417000 16.525999 36.544998 94.160004 # HT TIP3
201 67 1 0.417000 15.913000 36.025002 92.884003 # HT TIP3
202 68 2 -0.834000 10.064000 31.445999 78.695999 # OT TIP3
203 68 1 0.417000 10.896000 31.191999 79.081001 # HT TIP3
204 68 1 0.417000 9.498000 31.631001 79.490997 # HT TIP3
205 69 2 -0.834000 19.420000 33.007000 83.329002 # OT TIP3
206 69 1 0.417000 18.913000 32.810001 84.088997 # HT TIP3
207 69 1 0.417000 20.344999 33.189999 83.662003 # HT TIP3
208 70 2 -0.834000 15.370000 37.169998 97.010002 # OT TIP3
209 70 1 0.417000 15.790000 37.752998 96.304001 # HT TIP3
210 70 1 0.417000 16.069000 36.483002 97.043999 # HT TIP3
211 71 2 -0.834000 3.129000 22.440001 106.620003 # OT TIP3
212 71 1 0.417000 3.529000 23.283001 106.911003 # HT TIP3
213 71 1 0.417000 2.390000 22.409000 107.234001 # HT TIP3
214 72 2 -0.834000 12.672000 34.151001 102.474998 # OT TIP3
215 72 1 0.417000 12.157000 33.334999 102.570999 # HT TIP3
216 72 1 0.417000 13.109000 34.294998 103.321999 # HT TIP3
217 73 2 -0.834000 1.565000 30.252001 62.583000 # OT TIP3
218 73 1 0.417000 2.463000 30.562000 62.736000 # HT TIP3
219 73 1 0.417000 1.586000 29.334999 62.787998 # HT TIP3
220 74 2 -0.834000 14.739000 34.515999 98.538002 # OT TIP3
221 74 1 0.417000 14.342000 34.363998 97.663002 # HT TIP3
222 74 1 0.417000 14.129000 33.963001 99.063004 # HT TIP3
223 75 2 -0.834000 14.612000 18.680000 79.622002 # OT TIP3
224 75 1 0.417000 14.744000 18.414000 80.508003 # HT TIP3
225 75 1 0.417000 15.526000 18.830999 79.347000 # HT TIP3
226 76 2 -0.834000 11.082000 35.674000 72.933998 # OT TIP3
227 76 1 0.417000 11.208000 36.123001 73.794998 # HT TIP3
228 76 1 0.417000 10.448000 36.287998 72.544998 # HT TIP3
229 77 2 -0.834000 6.885000 36.212002 68.563004 # OT TIP3
230 77 1 0.417000 6.509000 36.848999 67.890999 # HT TIP3
231 77 1 0.417000 7.802000 36.078999 68.311996 # HT TIP3
232 78 2 -0.834000 2.287000 25.132000 84.737000 # OT TIP3
233 78 1 0.417000 2.235000 24.924000 85.731003 # HT TIP3
234 78 1 0.417000 3.088000 25.709000 84.639000 # HT TIP3
235 79 2 -0.834000 9.084000 33.875999 76.823997 # OT TIP3
236 79 1 0.417000 8.143000 33.955002 76.780998 # HT TIP3
237 79 1 0.417000 9.277000 33.234001 77.497002 # HT TIP3
238 80 2 -0.834000 7.365000 3.674000 89.058998 # OT TIP3
239 80 1 0.417000 6.799000 4.437000 88.848999 # HT TIP3
240 80 1 0.417000 8.175000 4.055000 89.403000 # HT TIP3
241 81 2 -0.834000 14.546000 34.837002 104.438004 # OT TIP3
242 81 1 0.417000 14.138000 35.233002 105.226997 # HT TIP3
243 81 1 0.417000 15.056000 34.141998 104.844002 # HT TIP3
244 82 2 -0.834000 10.339000 7.738000 92.901001 # OT TIP3
245 82 1 0.417000 9.904000 8.236000 93.634003 # HT TIP3
246 82 1 0.417000 10.404000 6.838000 93.222000 # HT TIP3
247 83 2 -0.834000 16.414000 7.569000 63.500999 # OT TIP3
248 83 1 0.417000 17.224001 7.858000 63.127998 # HT TIP3
249 83 1 0.417000 15.808000 7.700000 62.671001 # HT TIP3
250 84 2 -0.834000 8.571000 4.798000 95.095001 # OT TIP3
251 84 1 0.417000 7.966000 5.404000 94.494003 # HT TIP3
252 84 1 0.417000 8.446000 5.095000 96.028000 # HT TIP3
253 85 2 -0.834000 48.908001 16.278000 108.420998 # OT TIP3
254 85 1 0.417000 48.942001 16.294001 107.489998 # HT TIP3
255 85 1 0.417000 47.995998 15.903000 108.565002 # HT TIP3
256 86 2 -0.834000 10.935000 13.876000 71.191002 # OT TIP3
257 86 1 0.417000 10.709000 13.098000 70.634003 # HT TIP3
258 86 1 0.417000 10.472000 13.766000 72.017998 # HT TIP3
259 87 2 -0.834000 8.060000 3.074000 80.830002 # OT TIP3
260 87 1 0.417000 8.650000 2.619000 81.528000 # HT TIP3
261 87 1 0.417000 7.148000 2.796000 81.035004 # HT TIP3
262 88 2 -0.834000 11.895000 20.325001 100.064003 # OT TIP3
263 88 1 0.417000 11.367000 19.768000 100.668999 # HT TIP3
264 88 1 0.417000 12.786000 19.958000 100.228996 # HT TIP3
265 89 2 -0.834000 14.891000 2.919000 63.992001 # OT TIP3
266 89 1 0.417000 15.198000 3.681000 64.421997 # HT TIP3
267 89 1 0.417000 14.212000 2.577000 64.578003 # HT TIP3
268 90 2 -0.834000 9.823000 11.581000 69.827003 # OT TIP3
269 90 1 0.417000 9.183000 11.753000 69.148003 # HT TIP3
270 90 1 0.417000 9.389000 11.061000 70.533997 # HT TIP3
271 91 2 -0.834000 10.078000 12.967000 73.734001 # OT TIP3
272 91 1 0.417000 9.228000 12.561000 73.992996 # HT TIP3
273 91 1 0.417000 10.512000 13.194000 74.559998 # HT TIP3
274 92 2 -0.834000 11.282000 1.640000 63.053001 # OT TIP3
275 92 1 0.417000 11.367000 1.959000 64.015999 # HT TIP3
276 92 1 0.417000 10.743000 2.323000 62.667000 # HT TIP3
277 93 2 -0.834000 5.618000 9.125000 68.777000 # OT TIP3
278 93 1 0.417000 6.405000 8.919000 69.314003 # HT TIP3
279 93 1 0.417000 5.002000 9.458000 69.421997 # HT TIP3
280 94 2 -0.834000 4.403000 5.687000 70.815002 # OT TIP3
281 94 1 0.417000 4.109000 6.272000 70.097000 # HT TIP3
282 94 1 0.417000 4.817000 4.973000 70.327003 # HT TIP3
283 95 2 -0.834000 4.276000 8.465000 80.324997 # OT TIP3
284 95 1 0.417000 3.772000 7.991000 80.963997 # HT TIP3
285 95 1 0.417000 4.604000 9.288000 80.752998 # HT TIP3
286 96 2 -0.834000 3.891000 6.044000 93.612999 # OT TIP3
287 96 1 0.417000 3.260000 5.520000 94.150002 # HT TIP3
288 96 1 0.417000 3.303000 6.510000 93.019997 # HT TIP3
289 97 2 -0.834000 2.840000 9.265000 89.662003 # OT TIP3
290 97 1 0.417000 2.680000 9.044000 88.747002 # HT TIP3
291 97 1 0.417000 2.834000 10.211000 89.733002 # HT TIP3
292 98 2 -0.834000 10.700000 14.093000 107.444000 # OT TIP3
293 98 1 0.417000 11.512000 14.155000 107.012001 # HT TIP3
294 98 1 0.417000 10.781000 13.193000 107.754997 # HT TIP3
295 99 2 -0.834000 1.737000 18.902000 98.089996 # OT TIP3
296 99 1 0.417000 1.459000 19.792000 98.351997 # HT TIP3
297 99 1 0.417000 1.866000 18.948999 97.147003 # HT TIP3
298 100 2 -0.834000 10.978000 8.875000 85.947998 # OT TIP3
299 100 1 0.417000 10.589000 8.626000 86.845001 # HT TIP3
300 100 1 0.417000 11.436000 9.656000 86.186996 # HT TIP3
301 101 2 -0.834000 10.927000 5.185000 93.805000 # OT TIP3
302 101 1 0.417000 10.056000 4.935000 94.202003 # HT TIP3
303 101 1 0.417000 11.360000 4.325000 93.665001 # HT TIP3
304 102 2 -0.834000 4.119000 11.325000 74.157997 # OT TIP3
305 102 1 0.417000 4.598000 11.900000 73.512001 # HT TIP3
306 102 1 0.417000 4.440000 10.430000 73.961998 # HT TIP3
307 103 2 -0.834000 3.378000 6.806000 77.252998 # OT TIP3
308 103 1 0.417000 3.157000 7.161000 78.098999 # HT TIP3
309 103 1 0.417000 4.301000 7.032000 77.125999 # HT TIP3
310 104 2 -0.834000 7.382000 23.271000 63.319000 # OT TIP3
311 104 1 0.417000 6.550000 23.035000 62.847000 # HT TIP3
312 104 1 0.417000 7.859000 22.472000 63.192001 # HT TIP3
313 105 2 -0.834000 32.804001 13.756000 68.052002 # OT TIP3
314 105 1 0.417000 32.542999 14.642000 67.731003 # HT TIP3
315 105 1 0.417000 33.291000 13.930000 68.866997 # HT TIP3
316 106 2 -0.834000 5.017000 4.905000 80.417999 # OT TIP3
317 106 1 0.417000 4.142000 5.042000 80.132004 # HT TIP3
318 106 1 0.417000 5.582000 5.727000 80.294998 # HT TIP3
319 107 2 -0.834000 3.344000 21.472000 82.630997 # OT TIP3
320 107 1 0.417000 3.932000 21.820999 81.945000 # HT TIP3
321 107 1 0.417000 2.467000 21.548000 82.138000 # HT TIP3
322 108 2 -0.834000 21.613001 14.616000 72.066002 # OT TIP3
323 108 1 0.417000 21.739000 14.959000 71.218002 # HT TIP3
324 108 1 0.417000 20.618999 14.816000 72.250000 # HT TIP3
325 109 2 -0.834000 12.492000 6.548000 95.846001 # OT TIP3
326 109 1 0.417000 12.163000 6.204000 95.040001 # HT TIP3
327 109 1 0.417000 12.386000 7.479000 95.859001 # HT TIP3
328 110 2 -0.834000 2.787000 10.518000 85.514999 # OT TIP3
329 110 1 0.417000 3.132000 10.575000 84.646004 # HT TIP3
330 110 1 0.417000 2.860000 11.406000 85.787003 # HT TIP3
331 111 2 -0.834000 5.127000 2.870000 93.761002 # OT TIP3
332 111 1 0.417000 4.830000 3.272000 92.988998 # HT TIP3
333 111 1 0.417000 5.730000 3.562000 94.098000 # HT TIP3
334 112 2 -0.834000 15.526000 11.532000 81.137001 # OT TIP3
335 112 1 0.417000 15.162000 10.733000 81.502998 # HT TIP3
336 112 1 0.417000 15.466000 11.420000 80.194000 # HT TIP3
337 113 2 -0.834000 27.124001 17.594000 77.806999 # OT TIP3
338 113 1 0.417000 27.948000 17.864000 78.244003 # HT TIP3
339 113 1 0.417000 27.136999 18.048000 76.900002 # HT TIP3
340 114 2 -0.834000 9.876000 29.437000 66.579002 # OT TIP3
341 114 1 0.417000 10.227000 28.577000 66.358002 # HT TIP3
342 114 1 0.417000 9.790000 29.398001 67.532997 # HT TIP3
343 115 2 -0.834000 6.573000 15.804000 80.089996 # OT TIP3
344 115 1 0.417000 6.959000 16.339001 80.807999 # HT TIP3
345 115 1 0.417000 6.869000 16.413000 79.331001 # HT TIP3
346 116 2 -0.834000 17.283001 8.354000 83.780998 # OT TIP3
347 116 1 0.417000 16.639999 9.058000 83.448997 # HT TIP3
348 116 1 0.417000 16.973000 7.560000 83.378998 # HT TIP3
349 117 2 -0.834000 23.872000 19.441000 77.788002 # OT TIP3
350 117 1 0.417000 23.201000 18.864000 77.378998 # HT TIP3
351 117 1 0.417000 23.334999 19.981001 78.425003 # HT TIP3
352 118 2 -0.834000 11.105000 1.841000 100.111000 # OT TIP3
353 118 1 0.417000 10.488000 2.450000 99.630997 # HT TIP3
354 118 1 0.417000 11.632000 2.418000 100.705002 # HT TIP3
355 119 2 -0.834000 1.742000 21.646999 98.424004 # OT TIP3
356 119 1 0.417000 1.163000 22.202000 97.855003 # HT TIP3
357 119 1 0.417000 2.532000 21.410000 97.836998 # HT TIP3
358 120 2 -0.834000 6.458000 14.097000 65.588997 # OT TIP3
359 120 1 0.417000 6.673000 14.019000 64.612000 # HT TIP3
360 120 1 0.417000 5.899000 14.894000 65.656998 # HT TIP3
361 121 2 -0.834000 28.849001 10.868000 80.172997 # OT TIP3
362 121 1 0.417000 28.170000 10.720000 80.862999 # HT TIP3
363 121 1 0.417000 28.403000 11.419000 79.488998 # HT TIP3
364 122 2 -0.834000 5.552000 2.370000 81.330002 # OT TIP3
365 122 1 0.417000 5.274000 3.194000 80.953003 # HT TIP3
366 122 1 0.417000 5.235000 1.801000 80.570999 # HT TIP3
367 123 2 -0.834000 5.594000 26.266001 76.199997 # OT TIP3
368 123 1 0.417000 4.638000 26.500000 76.195999 # HT TIP3
369 123 1 0.417000 5.758000 25.896999 75.311996 # HT TIP3
370 124 2 -0.834000 11.966000 1.487000 88.664001 # OT TIP3
371 124 1 0.417000 11.835000 2.423000 88.474998 # HT TIP3
372 124 1 0.417000 11.558000 1.092000 87.883003 # HT TIP3
373 125 2 -0.834000 7.580000 13.992000 90.691002 # OT TIP3
374 125 1 0.417000 7.430000 14.886000 90.972000 # HT TIP3
375 125 1 0.417000 7.429000 13.499000 91.481003 # HT TIP3
376 126 2 -0.834000 6.160000 14.744000 68.954002 # OT TIP3
377 126 1 0.417000 7.048000 14.422000 69.207001 # HT TIP3
378 126 1 0.417000 6.008000 15.493000 69.528000 # HT TIP3
379 127 2 -0.834000 2.488000 8.754000 92.837997 # OT TIP3
380 127 1 0.417000 1.778000 9.323000 93.195000 # HT TIP3
381 127 1 0.417000 2.543000 9.043000 91.920998 # HT TIP3
382 128 2 -0.834000 4.348000 28.087000 105.369003 # OT TIP3
383 128 1 0.417000 4.847000 28.254999 106.224998 # HT TIP3
384 128 1 0.417000 3.813000 27.334999 105.661003 # HT TIP3
385 129 2 -0.834000 11.390000 7.386000 79.828003 # OT TIP3
386 129 1 0.417000 11.688000 7.484000 80.731003 # HT TIP3
387 129 1 0.417000 10.844000 6.589000 79.920998 # HT TIP3
388 130 2 -0.834000 2.678000 22.941999 62.035000 # OT TIP3
389 130 1 0.417000 2.272000 22.280001 62.591999 # HT TIP3
390 130 1 0.417000 2.498000 23.809000 62.493000 # HT TIP3
391 131 2 -0.834000 10.630000 22.547001 64.000000 # OT TIP3
392 131 1 0.417000 10.601000 23.471001 63.643002 # HT TIP3
393 131 1 0.417000 10.287000 21.954000 63.312000 # HT TIP3
394 132 2 -0.834000 1.755000 35.043999 73.922997 # OT TIP3
395 132 1 0.417000 2.378000 35.200001 74.655998 # HT TIP3
396 132 1 0.417000 1.331000 34.221001 74.228996 # HT TIP3
397 133 2 -0.834000 5.391000 30.423000 82.120003 # OT TIP3
398 133 1 0.417000 4.763000 29.799000 82.511002 # HT TIP3
399 133 1 0.417000 5.594000 30.044001 81.208000 # HT TIP3
400 134 2 -0.834000 3.344000 11.571000 63.624001 # OT TIP3
401 134 1 0.417000 3.122000 11.753000 64.553001 # HT TIP3
402 134 1 0.417000 3.947000 10.791000 63.617001 # HT TIP3
403 135 2 -0.834000 3.582000 28.635000 83.063004 # OT TIP3
404 135 1 0.417000 2.826000 28.334000 83.610001 # HT TIP3
405 135 1 0.417000 3.141000 28.872999 82.226997 # HT TIP3
406 136 2 -0.834000 3.619000 29.047001 98.820000 # OT TIP3
407 136 1 0.417000 3.469000 29.993999 98.611000 # HT TIP3
408 136 1 0.417000 2.971000 28.756001 99.500000 # HT TIP3
409 137 2 -0.834000 9.123000 8.890000 95.105003 # OT TIP3
410 137 1 0.417000 9.283000 8.539000 96.039001 # HT TIP3
411 137 1 0.417000 9.729000 9.634000 95.000000 # HT TIP3
412 138 2 -0.834000 14.385000 10.769000 90.453003 # OT TIP3
413 138 1 0.417000 14.856000 11.391000 91.061996 # HT TIP3
414 138 1 0.417000 13.599000 10.513000 90.964996 # HT TIP3
415 139 2 -0.834000 1.823000 24.667999 63.888000 # OT TIP3
416 139 1 0.417000 2.636000 24.316000 64.339996 # HT TIP3
417 139 1 0.417000 1.253000 24.978001 64.639999 # HT TIP3
418 140 2 -0.834000 3.083000 29.332001 68.325996 # OT TIP3
419 140 1 0.417000 2.558000 29.514000 69.114998 # HT TIP3
420 140 1 0.417000 2.496000 28.737000 67.810997 # HT TIP3
421 141 2 -0.834000 14.220000 25.493999 74.092003 # OT TIP3
422 141 1 0.417000 13.891000 26.382999 74.287003 # HT TIP3
423 141 1 0.417000 14.056000 24.917999 74.852997 # HT TIP3
424 142 2 -0.834000 1.995000 29.021000 71.014999 # OT TIP3
425 142 1 0.417000 1.013000 28.981001 71.042999 # HT TIP3
426 142 1 0.417000 2.298000 28.118999 71.263000 # HT TIP3
427 143 2 -0.834000 3.710000 7.185000 68.540001 # OT TIP3
428 143 1 0.417000 3.467000 7.236000 67.560997 # HT TIP3
429 143 1 0.417000 4.410000 7.855000 68.580002 # HT TIP3
430 144 2 -0.834000 7.911000 20.458000 78.334999 # OT TIP3
431 144 1 0.417000 8.517000 21.118000 77.957001 # HT TIP3
432 144 1 0.417000 7.315000 20.136000 77.587997 # HT TIP3
433 145 2 -0.834000 14.336000 25.461000 97.785004 # OT TIP3
434 145 1 0.417000 14.239000 26.164000 98.433998 # HT TIP3
435 145 1 0.417000 14.693000 24.712999 98.244003 # HT TIP3
436 146 2 -0.834000 3.834000 16.042999 95.374001 # OT TIP3
437 146 1 0.417000 3.279000 15.807000 96.123001 # HT TIP3
438 146 1 0.417000 4.607000 15.549000 95.502998 # HT TIP3
439 147 2 -0.834000 4.085000 36.285999 101.650002 # OT TIP3
440 147 1 0.417000 4.944000 36.236000 102.009003 # HT TIP3
441 147 1 0.417000 3.523000 35.814999 102.264000 # HT TIP3
442 148 2 -0.834000 24.124001 21.629000 106.624001 # OT TIP3
443 148 1 0.417000 23.110001 21.586000 106.371002 # HT TIP3
444 148 1 0.417000 24.295000 20.663000 106.829002 # HT TIP3
445 149 2 -0.834000 6.179000 21.889999 88.387001 # OT TIP3
446 149 1 0.417000 5.618000 22.606001 88.646004 # HT TIP3
447 149 1 0.417000 6.196000 21.211000 89.107002 # HT TIP3
448 150 2 -0.834000 17.191999 23.403000 64.781998 # OT TIP3
449 150 1 0.417000 17.363001 23.881001 65.622002 # HT TIP3
450 150 1 0.417000 17.427000 24.065001 64.085999 # HT TIP3
451 151 2 -0.834000 14.540000 23.219999 63.748001 # OT TIP3
452 151 1 0.417000 13.965000 23.475000 64.461998 # HT TIP3
453 151 1 0.417000 15.428000 23.403999 64.073997 # HT TIP3
454 152 2 -0.834000 10.525000 29.541000 91.151001 # OT TIP3
455 152 1 0.417000 11.415000 29.417999 90.685997 # HT TIP3
456 152 1 0.417000 10.197000 28.671000 91.238998 # HT TIP3
457 153 2 -0.834000 4.005000 34.969002 75.749001 # OT TIP3
458 153 1 0.417000 4.749000 35.208000 75.158997 # HT TIP3
459 153 1 0.417000 4.103000 34.042000 75.925003 # HT TIP3
460 154 2 -0.834000 9.389000 19.165001 91.991997 # OT TIP3
461 154 1 0.417000 8.968000 18.770000 91.209999 # HT TIP3
462 154 1 0.417000 9.417000 18.451000 92.640999 # HT TIP3
463 155 2 -0.834000 11.438000 22.237000 102.009003 # OT TIP3
464 155 1 0.417000 11.846000 21.740000 101.267998 # HT TIP3
465 155 1 0.417000 10.577000 22.480000 101.711998 # HT TIP3
466 156 2 -0.834000 16.326000 27.968000 92.402000 # OT TIP3
467 156 1 0.417000 15.453000 27.736000 91.928001 # HT TIP3
468 156 1 0.417000 16.068001 28.620001 93.032997 # HT TIP3
469 157 2 -0.834000 4.271000 19.974001 104.186996 # OT TIP3
470 157 1 0.417000 4.458000 19.073000 103.987999 # HT TIP3
471 157 1 0.417000 4.320000 20.429001 103.313004 # HT TIP3
472 158 2 -0.834000 9.181000 24.465000 68.637001 # OT TIP3
473 158 1 0.417000 10.007000 24.937000 68.703003 # HT TIP3
474 158 1 0.417000 8.517000 25.117001 68.311996 # HT TIP3
475 159 2 -0.834000 11.929000 15.750000 66.718002 # OT TIP3
476 159 1 0.417000 11.050000 15.541000 66.407997 # HT TIP3
477 159 1 0.417000 12.401000 14.879000 66.717003 # HT TIP3
478 160 2 -0.834000 20.659000 26.552000 78.448997 # OT TIP3
479 160 1 0.417000 21.181999 27.346001 78.499001 # HT TIP3
480 160 1 0.417000 19.733999 26.858000 78.380997 # HT TIP3
481 161 2 -0.834000 7.984000 35.157001 84.047997 # OT TIP3
482 161 1 0.417000 7.218000 35.084999 83.457001 # HT TIP3
483 161 1 0.417000 7.716000 34.608002 84.800003 # HT TIP3
484 162 2 -0.834000 7.997000 35.755001 96.342003 # OT TIP3
485 162 1 0.417000 8.600000 35.991001 96.995003 # HT TIP3
486 162 1 0.417000 7.935000 34.804001 96.463997 # HT TIP3
487 163 2 -0.834000 3.086000 26.452000 79.194000 # OT TIP3
488 163 1 0.417000 3.174000 26.923000 78.393997 # HT TIP3
489 163 1 0.417000 2.272000 26.868999 79.603996 # HT TIP3
490 164 2 -0.834000 2.683000 26.667000 87.332001 # OT TIP3
491 164 1 0.417000 3.580000 26.907000 87.426003 # HT TIP3
492 164 1 0.417000 2.485000 26.226999 88.125999 # HT TIP3
493 165 2 -0.834000 24.330999 22.618999 79.069000 # OT TIP3
494 165 1 0.417000 24.136999 23.516001 79.456001 # HT TIP3
495 165 1 0.417000 23.663000 21.985001 79.449997 # HT TIP3
496 166 2 -0.834000 2.754000 35.617001 95.407997 # OT TIP3
497 166 1 0.417000 2.791000 35.661999 96.419998 # HT TIP3
498 166 1 0.417000 3.568000 36.011002 95.179001 # HT TIP3
499 167 2 -0.834000 15.700000 30.177000 94.074997 # OT TIP3
500 167 1 0.417000 15.575000 29.886999 94.996002 # HT TIP3
501 167 1 0.417000 14.769000 30.183001 93.748001 # HT TIP3
502 168 2 -0.834000 46.797001 11.042000 102.231003 # OT TIP3
503 168 1 0.417000 47.158001 10.484000 102.975998 # HT TIP3
504 168 1 0.417000 47.212002 11.913000 102.424004 # HT TIP3
505 169 2 -0.834000 17.507000 18.170000 82.005997 # OT TIP3
506 169 1 0.417000 18.226000 18.006001 81.294998 # HT TIP3
507 169 1 0.417000 17.030001 17.297001 82.082001 # HT TIP3
508 170 2 -0.834000 12.931000 37.535000 93.386002 # OT TIP3
509 170 1 0.417000 12.439000 37.173000 94.148003 # HT TIP3
510 170 1 0.417000 13.243000 36.723000 92.845001 # HT TIP3