LAMMPS data file. CGCMM style. atom_style full generated by VMD/TopoTools v1.1 on Wed Jun 20 02:11:20 +0800 2012
 3795 atoms
 2530 bonds
 1265 angles
 0 dihedrals
 0 impropers
 2 atom types
 1 bond types
 1 angle types
 0 dihedral types
 0 improper types
 0.957001 28.957001  xlo xhi
 1.019501 29.019501  ylo yhi
 76.086502 129.086502  zlo zhi

# Pair Coeffs
#
# 1  HT
# 2  OT

# Bond Coeffs
#
# 1  

# Angle Coeffs
#
# 1  unknown

 Masses

 1 1.007940 # HT
 2 15.999400 # OT

 Atoms

1 1 2 -0.834000 4.668000 11.082000 91.903999 # OT TIP3
2 1 1 0.417000 4.224000 11.451000 91.100998 # HT TIP3
3 1 1 0.417000 4.092000 11.379000 92.626999 # HT TIP3
4 2 2 -0.834000 7.033000 5.876000 96.890999 # OT TIP3
5 2 1 0.417000 7.078000 6.224000 97.797997 # HT TIP3
6 2 1 0.417000 7.592000 5.088000 96.960999 # HT TIP3
7 3 2 -0.834000 5.569000 4.960000 105.887001 # OT TIP3
8 3 1 0.417000 4.959000 4.160000 105.980003 # HT TIP3
9 3 1 0.417000 4.995000 5.655000 105.421997 # HT TIP3
10 4 2 -0.834000 1.975000 15.007000 114.567001 # OT TIP3
11 4 1 0.417000 2.137000 14.263000 113.966003 # HT TIP3
12 4 1 0.417000 1.619000 14.539000 115.360001 # HT TIP3
13 5 2 -0.834000 7.387000 1.374000 126.856003 # OT TIP3
14 5 1 0.417000 7.306000 1.100000 125.924004 # HT TIP3
15 5 1 0.417000 8.156000 2.026000 126.774002 # HT TIP3
16 6 2 -0.834000 1.924000 5.249000 126.231003 # OT TIP3
17 6 1 0.417000 2.353000 4.714000 126.990997 # HT TIP3
18 6 1 0.417000 1.660000 6.086000 126.717003 # HT TIP3
19 7 2 -0.834000 6.186000 17.695999 88.071999 # OT TIP3
20 7 1 0.417000 7.083000 17.979000 87.816002 # HT TIP3
21 7 1 0.417000 6.337000 16.832001 88.489998 # HT TIP3
22 8 2 -0.834000 15.437000 6.794000 106.556000 # OT TIP3
23 8 1 0.417000 14.524000 6.319000 106.531998 # HT TIP3
24 8 1 0.417000 15.984000 6.113000 106.973000 # HT TIP3
25 9 2 -0.834000 9.324000 14.811000 97.332001 # OT TIP3
26 9 1 0.417000 9.633000 14.348000 98.112000 # HT TIP3
27 9 1 0.417000 9.506000 14.116000 96.644997 # HT TIP3
28 10 2 -0.834000 12.462000 27.025999 107.373001 # OT TIP3
29 10 1 0.417000 12.386000 27.695000 108.075996 # HT TIP3
30 10 1 0.417000 11.619000 27.080000 106.935997 # HT TIP3
31 11 2 -0.834000 9.437000 3.169000 127.651001 # OT TIP3
32 11 1 0.417000 10.039000 3.400000 126.892998 # HT TIP3
33 11 1 0.417000 9.271000 3.912000 128.143997 # HT TIP3
34 12 2 -0.834000 4.786000 17.318001 77.309998 # OT TIP3
35 12 1 0.417000 4.781000 16.388000 77.195999 # HT TIP3
36 12 1 0.417000 5.528000 17.580000 76.780998 # HT TIP3
37 13 2 -0.834000 7.205000 7.991000 94.442001 # OT TIP3
38 13 1 0.417000 7.782000 8.347000 95.152000 # HT TIP3
39 13 1 0.417000 6.309000 8.062000 94.800003 # HT TIP3
40 14 2 -0.834000 17.125999 15.701000 80.577003 # OT TIP3
41 14 1 0.417000 17.070000 15.272000 79.725998 # HT TIP3
42 14 1 0.417000 17.805000 16.454000 80.445000 # HT TIP3
43 15 2 -0.834000 3.750000 9.844000 85.628998 # OT TIP3
44 15 1 0.417000 3.110000 9.290000 85.998001 # HT TIP3
45 15 1 0.417000 3.164000 10.245000 84.961998 # HT TIP3
46 16 2 -0.834000 4.935000 17.195000 98.109001 # OT TIP3
47 16 1 0.417000 5.870000 17.034000 97.985001 # HT TIP3
48 16 1 0.417000 4.655000 16.367001 98.581001 # HT TIP3
49 17 2 -0.834000 3.991000 12.162000 103.860001 # OT TIP3
50 17 1 0.417000 4.594000 11.968000 103.128998 # HT TIP3
51 17 1 0.417000 3.414000 12.775000 103.430000 # HT TIP3
52 18 2 -0.834000 5.240000 8.037000 103.081001 # OT TIP3
53 18 1 0.417000 5.656000 8.831000 102.657997 # HT TIP3
54 18 1 0.417000 4.786000 8.428000 103.811996 # HT TIP3
55 19 2 -0.834000 8.172000 7.999000 114.581001 # OT TIP3
56 19 1 0.417000 8.040000 8.550000 115.327003 # HT TIP3
57 19 1 0.417000 7.244000 7.756000 114.263000 # HT TIP3
58 20 2 -0.834000 11.674000 9.909000 80.986000 # OT TIP3
59 20 1 0.417000 11.998000 9.871000 81.931999 # HT TIP3
60 20 1 0.417000 10.748000 10.270000 81.074997 # HT TIP3
61 21 2 -0.834000 1.002000 6.667000 90.591003 # OT TIP3
62 21 1 0.417000 1.483000 6.990000 89.830002 # HT TIP3
63 21 1 0.417000 1.608000 6.781000 91.347000 # HT TIP3
64 22 2 -0.834000 10.882000 10.156000 90.916000 # OT TIP3
65 22 1 0.417000 10.574000 10.753000 91.597000 # HT TIP3
66 22 1 0.417000 11.021000 9.264000 91.289001 # HT TIP3
67 23 2 -0.834000 8.964000 7.107000 105.453003 # OT TIP3
68 23 1 0.417000 9.242000 6.206000 105.598999 # HT TIP3
69 23 1 0.417000 9.422000 7.545000 106.237000 # HT TIP3
70 24 2 -0.834000 25.177000 15.271000 114.125999 # OT TIP3
71 24 1 0.417000 24.534000 14.942000 113.459000 # HT TIP3
72 24 1 0.417000 26.062000 15.082000 113.681999 # HT TIP3
73 25 2 -0.834000 7.316000 6.288000 103.495003 # OT TIP3
74 25 1 0.417000 7.640000 6.631000 104.362999 # HT TIP3
75 25 1 0.417000 6.563000 6.852000 103.279999 # HT TIP3
76 26 2 -0.834000 2.661000 7.681000 77.943001 # OT TIP3
77 26 1 0.417000 2.943000 6.739000 77.981003 # HT TIP3
78 26 1 0.417000 1.778000 7.599000 77.483002 # HT TIP3
79 27 2 -0.834000 5.821000 21.603001 87.238998 # OT TIP3
80 27 1 0.417000 6.466000 21.782000 87.962997 # HT TIP3
81 27 1 0.417000 6.384000 21.914000 86.456001 # HT TIP3
82 28 2 -0.834000 16.021999 21.855000 88.831001 # OT TIP3
83 28 1 0.417000 15.222000 21.809000 89.292000 # HT TIP3
84 28 1 0.417000 15.673000 22.056999 87.917999 # HT TIP3
85 29 2 -0.834000 2.339000 4.782000 98.814003 # OT TIP3
86 29 1 0.417000 1.839000 4.425000 98.086998 # HT TIP3
87 29 1 0.417000 2.775000 4.077000 99.138000 # HT TIP3
88 30 2 -0.834000 1.485000 16.136999 98.475998 # OT TIP3
89 30 1 0.417000 1.644000 16.424999 99.348999 # HT TIP3
90 30 1 0.417000 1.312000 16.961000 97.974998 # HT TIP3
91 31 2 -0.834000 14.143000 14.795000 109.478996 # OT TIP3
92 31 1 0.417000 13.931000 14.553000 110.356003 # HT TIP3
93 31 1 0.417000 14.523000 15.662000 109.518997 # HT TIP3
94 32 2 -0.834000 13.421000 21.594999 107.343002 # OT TIP3
95 32 1 0.417000 13.330000 21.621000 108.303001 # HT TIP3
96 32 1 0.417000 13.281000 22.525999 107.063004 # HT TIP3
97 33 2 -0.834000 10.955000 18.632999 117.207001 # OT TIP3
98 33 1 0.417000 10.041000 18.861000 117.366997 # HT TIP3
99 33 1 0.417000 11.205000 17.962999 117.947998 # HT TIP3
100 34 2 -0.834000 6.608000 24.917999 88.959000 # OT TIP3
101 34 1 0.417000 5.840000 24.622000 88.544998 # HT TIP3
102 34 1 0.417000 7.037000 25.336000 88.208000 # HT TIP3
103 35 2 -0.834000 11.426000 8.604000 78.403999 # OT TIP3
104 35 1 0.417000 11.761000 9.401000 77.994003 # HT TIP3
105 35 1 0.417000 11.248000 8.889000 79.307999 # HT TIP3
106 36 2 -0.834000 9.569000 26.684000 88.210999 # OT TIP3
107 36 1 0.417000 10.123000 26.542000 89.014999 # HT TIP3
108 36 1 0.417000 9.805000 27.594999 87.927002 # HT TIP3
109 37 2 -0.834000 5.269000 23.752001 92.264999 # OT TIP3
110 37 1 0.417000 5.149000 24.680000 91.888000 # HT TIP3
111 37 1 0.417000 6.061000 23.796000 92.776001 # HT TIP3
112 38 2 -0.834000 4.599000 14.689000 99.583000 # OT TIP3
113 38 1 0.417000 4.430000 13.876000 100.061996 # HT TIP3
114 38 1 0.417000 5.561000 14.769000 99.661003 # HT TIP3
115 39 2 -0.834000 20.952000 2.961000 102.164001 # OT TIP3
116 39 1 0.417000 21.414000 2.079000 102.079002 # HT TIP3
117 39 1 0.417000 21.667000 3.653000 102.013000 # HT TIP3
118 40 2 -0.834000 5.078000 21.804001 126.265999 # OT TIP3
119 40 1 0.417000 5.502000 22.108999 127.060997 # HT TIP3
120 40 1 0.417000 4.393000 21.089001 126.598000 # HT TIP3
121 41 2 -0.834000 24.517000 12.039000 118.783997 # OT TIP3
122 41 1 0.417000 23.687000 11.572000 118.893997 # HT TIP3
123 41 1 0.417000 25.010000 11.506000 119.361000 # HT TIP3
124 42 2 -0.834000 23.572001 7.242000 79.477997 # OT TIP3
125 42 1 0.417000 22.705000 6.845000 79.830002 # HT TIP3
126 42 1 0.417000 23.951000 6.659000 78.858002 # HT TIP3
127 43 2 -0.834000 11.926000 6.365000 77.017998 # OT TIP3
128 43 1 0.417000 12.138000 5.769000 77.753998 # HT TIP3
129 43 1 0.417000 11.657000 7.212000 77.492996 # HT TIP3
130 44 2 -0.834000 9.647000 5.314000 95.278000 # OT TIP3
131 44 1 0.417000 8.964000 4.611000 95.325996 # HT TIP3
132 44 1 0.417000 9.043000 6.064000 95.153000 # HT TIP3
133 45 2 -0.834000 9.381000 18.319000 99.275002 # OT TIP3
134 45 1 0.417000 8.516000 18.340000 99.695000 # HT TIP3
135 45 1 0.417000 9.431000 19.263000 99.009003 # HT TIP3
136 46 2 -0.834000 5.342000 12.388000 101.271004 # OT TIP3
137 46 1 0.417000 5.842000 11.697000 101.678001 # HT TIP3
138 46 1 0.417000 5.903000 13.148000 101.578003 # HT TIP3
139 47 2 -0.834000 2.670000 16.674999 105.166000 # OT TIP3
140 47 1 0.417000 3.120000 16.950001 105.973999 # HT TIP3
141 47 1 0.417000 1.763000 16.517000 105.468002 # HT TIP3
142 48 2 -0.834000 1.802000 26.084000 81.523003 # OT TIP3
143 48 1 0.417000 1.579000 27.065001 81.504997 # HT TIP3
144 48 1 0.417000 2.795000 26.163000 81.445000 # HT TIP3
145 49 2 -0.834000 5.299000 18.774000 83.168999 # OT TIP3
146 49 1 0.417000 4.303000 18.802999 83.321999 # HT TIP3
147 49 1 0.417000 5.533000 19.754999 82.924004 # HT TIP3
148 50 2 -0.834000 9.892000 13.977000 81.320999 # OT TIP3
149 50 1 0.417000 9.119000 13.478000 81.443001 # HT TIP3
150 50 1 0.417000 10.342000 13.557000 80.536003 # HT TIP3
151 51 2 -0.834000 3.708000 21.969000 100.503998 # OT TIP3
152 51 1 0.417000 3.589000 21.945000 99.556000 # HT TIP3
153 51 1 0.417000 4.123000 22.834999 100.549004 # HT TIP3
154 52 2 -0.834000 3.428000 13.731000 106.487000 # OT TIP3
155 52 1 0.417000 3.719000 13.073000 105.830002 # HT TIP3
156 52 1 0.417000 3.582000 14.542000 106.008003 # HT TIP3
157 53 2 -0.834000 14.773000 18.596001 123.113998 # OT TIP3
158 53 1 0.417000 13.829000 18.724001 123.223999 # HT TIP3
159 53 1 0.417000 15.043000 18.148001 123.974998 # HT TIP3
160 54 2 -0.834000 3.174000 19.468000 78.211998 # OT TIP3
161 54 1 0.417000 3.632000 18.628000 78.203003 # HT TIP3
162 54 1 0.417000 3.931000 20.120001 78.280998 # HT TIP3
163 55 2 -0.834000 6.048000 10.046000 112.578003 # OT TIP3
164 55 1 0.417000 6.064000 10.889000 113.058998 # HT TIP3
165 55 1 0.417000 5.622000 10.224000 111.742996 # HT TIP3
166 56 2 -0.834000 19.870001 22.459999 104.971001 # OT TIP3
167 56 1 0.417000 18.903000 22.288000 104.721001 # HT TIP3
168 56 1 0.417000 20.073999 21.691000 105.591003 # HT TIP3
169 57 2 -0.834000 3.129000 22.440001 121.620003 # OT TIP3
170 57 1 0.417000 3.529000 23.283001 121.911003 # HT TIP3
171 57 1 0.417000 2.390000 22.409000 122.234001 # HT TIP3
172 58 2 -0.834000 13.265000 22.885000 127.886002 # OT TIP3
173 58 1 0.417000 13.653000 22.127001 127.369003 # HT TIP3
174 58 1 0.417000 13.964000 23.547001 127.864998 # HT TIP3
175 59 2 -0.834000 14.612000 18.680000 94.622002 # OT TIP3
176 59 1 0.417000 14.744000 18.414000 95.508003 # HT TIP3
177 59 1 0.417000 15.526000 18.830999 94.347000 # HT TIP3
178 60 2 -0.834000 2.287000 25.132000 99.737000 # OT TIP3
179 60 1 0.417000 2.235000 24.924000 100.731003 # HT TIP3
180 60 1 0.417000 3.088000 25.709000 99.639000 # HT TIP3
181 61 2 -0.834000 7.365000 3.674000 104.058998 # OT TIP3
182 61 1 0.417000 6.799000 4.437000 103.848999 # HT TIP3
183 61 1 0.417000 8.175000 4.055000 104.403000 # HT TIP3
184 62 2 -0.834000 10.339000 7.738000 107.901001 # OT TIP3
185 62 1 0.417000 9.904000 8.236000 108.634003 # HT TIP3
186 62 1 0.417000 10.404000 6.838000 108.222000 # HT TIP3
187 63 2 -0.834000 16.414000 7.569000 78.500999 # OT TIP3
188 63 1 0.417000 17.224001 7.858000 78.127998 # HT TIP3
189 63 1 0.417000 15.808000 7.700000 77.670998 # HT TIP3
190 64 2 -0.834000 8.571000 4.798000 110.095001 # OT TIP3
191 64 1 0.417000 7.966000 5.404000 109.494003 # HT TIP3
192 64 1 0.417000 8.446000 5.095000 111.028000 # HT TIP3
193 65 2 -0.834000 12.796000 27.122000 126.288002 # OT TIP3
194 65 1 0.417000 12.863000 27.291000 125.362999 # HT TIP3
195 65 1 0.417000 12.019000 26.507000 126.334000 # HT TIP3
196 66 2 -0.834000 10.935000 13.876000 86.191002 # OT TIP3
197 66 1 0.417000 10.709000 13.098000 85.634003 # HT TIP3
198 66 1 0.417000 10.472000 13.766000 87.017998 # HT TIP3
199 67 2 -0.834000 8.060000 3.074000 95.830002 # OT TIP3
200 67 1 0.417000 8.650000 2.619000 96.528000 # HT TIP3
201 67 1 0.417000 7.148000 2.796000 96.035004 # HT TIP3
202 68 2 -0.834000 11.895000 20.325001 115.064003 # OT TIP3
203 68 1 0.417000 11.367000 19.768000 115.668999 # HT TIP3
204 68 1 0.417000 12.786000 19.958000 115.228996 # HT TIP3
205 69 2 -0.834000 10.957000 15.780000 124.733002 # OT TIP3
206 69 1 0.417000 11.058000 15.175000 123.972000 # HT TIP3
207 69 1 0.417000 10.107000 16.195999 124.517998 # HT TIP3
208 70 2 -0.834000 14.891000 2.919000 78.991997 # OT TIP3
209 70 1 0.417000 15.198000 3.681000 79.421997 # HT TIP3
210 70 1 0.417000 14.212000 2.577000 79.578003 # HT TIP3
211 71 2 -0.834000 9.823000 11.581000 84.827003 # OT TIP3
212 71 1 0.417000 9.183000 11.753000 84.148003 # HT TIP3
213 71 1 0.417000 9.389000 11.061000 85.533997 # HT TIP3
214 72 2 -0.834000 10.078000 12.967000 88.734001 # OT TIP3
215 72 1 0.417000 9.228000 12.561000 88.992996 # HT TIP3
216 72 1 0.417000 10.512000 13.194000 89.559998 # HT TIP3
217 73 2 -0.834000 9.369000 18.158001 124.435997 # OT TIP3
218 73 1 0.417000 8.983000 18.021000 123.574997 # HT TIP3
219 73 1 0.417000 8.764000 18.888000 124.785004 # HT TIP3
220 74 2 -0.834000 11.282000 1.640000 78.053001 # OT TIP3
221 74 1 0.417000 11.367000 1.959000 79.015999 # HT TIP3
222 74 1 0.417000 10.743000 2.323000 77.667000 # HT TIP3
223 75 2 -0.834000 5.618000 9.125000 83.777000 # OT TIP3
224 75 1 0.417000 6.405000 8.919000 84.314003 # HT TIP3
225 75 1 0.417000 5.002000 9.458000 84.421997 # HT TIP3
226 76 2 -0.834000 4.403000 5.687000 85.815002 # OT TIP3
227 76 1 0.417000 4.109000 6.272000 85.097000 # HT TIP3
228 76 1 0.417000 4.817000 4.973000 85.327003 # HT TIP3
229 77 2 -0.834000 4.276000 8.465000 95.324997 # OT TIP3
230 77 1 0.417000 3.772000 7.991000 95.963997 # HT TIP3
231 77 1 0.417000 4.604000 9.288000 95.752998 # HT TIP3
232 78 2 -0.834000 3.891000 6.044000 108.612999 # OT TIP3
233 78 1 0.417000 3.260000 5.520000 109.150002 # HT TIP3
234 78 1 0.417000 3.303000 6.510000 108.019997 # HT TIP3
235 79 2 -0.834000 2.840000 9.265000 104.662003 # OT TIP3
236 79 1 0.417000 2.680000 9.044000 103.747002 # HT TIP3
237 79 1 0.417000 2.834000 10.211000 104.733002 # HT TIP3
238 80 2 -0.834000 10.700000 14.093000 122.444000 # OT TIP3
239 80 1 0.417000 11.512000 14.155000 122.012001 # HT TIP3
240 80 1 0.417000 10.781000 13.193000 122.754997 # HT TIP3
241 81 2 -0.834000 1.737000 18.902000 113.089996 # OT TIP3
242 81 1 0.417000 1.459000 19.792000 113.351997 # HT TIP3
243 81 1 0.417000 1.866000 18.948999 112.147003 # HT TIP3
244 82 2 -0.834000 10.978000 8.875000 100.947998 # OT TIP3
245 82 1 0.417000 10.589000 8.626000 101.845001 # HT TIP3
246 82 1 0.417000 11.436000 9.656000 101.186996 # HT TIP3
247 83 2 -0.834000 10.927000 5.185000 108.805000 # OT TIP3
248 83 1 0.417000 10.056000 4.935000 109.202003 # HT TIP3
249 83 1 0.417000 11.360000 4.325000 108.665001 # HT TIP3
250 84 2 -0.834000 21.764999 17.218000 124.372002 # OT TIP3
251 84 1 0.417000 21.822001 17.158001 123.389999 # HT TIP3
252 84 1 0.417000 22.594999 16.857000 124.698997 # HT TIP3
253 85 2 -0.834000 4.119000 11.325000 89.157997 # OT TIP3
254 85 1 0.417000 4.598000 11.900000 88.512001 # HT TIP3
255 85 1 0.417000 4.440000 10.430000 88.961998 # HT TIP3
256 86 2 -0.834000 3.378000 6.806000 92.252998 # OT TIP3
257 86 1 0.417000 3.157000 7.161000 93.098999 # HT TIP3
258 86 1 0.417000 4.301000 7.032000 92.125999 # HT TIP3
259 87 2 -0.834000 7.382000 23.271000 78.319000 # OT TIP3
260 87 1 0.417000 6.550000 23.035000 77.847000 # HT TIP3
261 87 1 0.417000 7.859000 22.472000 78.192001 # HT TIP3
262 88 2 -0.834000 5.017000 4.905000 95.417999 # OT TIP3
263 88 1 0.417000 4.142000 5.042000 95.132004 # HT TIP3
264 88 1 0.417000 5.582000 5.727000 95.294998 # HT TIP3
265 89 2 -0.834000 3.344000 21.472000 97.630997 # OT TIP3
266 89 1 0.417000 3.932000 21.820999 96.945000 # HT TIP3
267 89 1 0.417000 2.467000 21.548000 97.138000 # HT TIP3
268 90 2 -0.834000 21.613001 14.616000 87.066002 # OT TIP3
269 90 1 0.417000 21.739000 14.959000 86.218002 # HT TIP3
270 90 1 0.417000 20.618999 14.816000 87.250000 # HT TIP3
271 91 2 -0.834000 12.492000 6.548000 110.846001 # OT TIP3
272 91 1 0.417000 12.163000 6.204000 110.040001 # HT TIP3
273 91 1 0.417000 12.386000 7.479000 110.859001 # HT TIP3
274 92 2 -0.834000 2.787000 10.518000 100.514999 # OT TIP3
275 92 1 0.417000 3.132000 10.575000 99.646004 # HT TIP3
276 92 1 0.417000 2.860000 11.406000 100.787003 # HT TIP3
277 93 2 -0.834000 5.127000 2.870000 108.761002 # OT TIP3
278 93 1 0.417000 4.830000 3.272000 107.988998 # HT TIP3
279 93 1 0.417000 5.730000 3.562000 109.098000 # HT TIP3
280 94 2 -0.834000 15.526000 11.532000 96.137001 # OT TIP3
281 94 1 0.417000 15.162000 10.733000 96.502998 # HT TIP3
282 94 1 0.417000 15.466000 11.420000 95.194000 # HT TIP3
283 95 2 -0.834000 27.124001 17.594000 92.806999 # OT TIP3
284 95 1 0.417000 27.948000 17.864000 93.244003 # HT TIP3
285 95 1 0.417000 27.136999 18.048000 91.900002 # HT TIP3
286 96 2 -0.834000 6.573000 15.804000 95.089996 # OT TIP3
287 96 1 0.417000 6.959000 16.339001 95.807999 # HT TIP3
288 96 1 0.417000 6.869000 16.413000 94.331001 # HT TIP3
289 97 2 -0.834000 17.283001 8.354000 98.780998 # OT TIP3
290 97 1 0.417000 16.639999 9.058000 98.448997 # HT TIP3
291 97 1 0.417000 16.973000 7.560000 98.378998 # HT TIP3
292 98 2 -0.834000 23.872000 19.441000 92.788002 # OT TIP3
293 98 1 0.417000 23.201000 18.864000 92.378998 # HT TIP3
294 98 1 0.417000 23.334999 19.981001 93.425003 # HT TIP3
295 99 2 -0.834000 11.105000 1.841000 115.111000 # OT TIP3
296 99 1 0.417000 10.488000 2.450000 114.630997 # HT TIP3
297 99 1 0.417000 11.632000 2.418000 115.705002 # HT TIP3
298 100 2 -0.834000 1.742000 21.646999 113.424004 # OT TIP3
299 100 1 0.417000 1.163000 22.202000 112.855003 # HT TIP3
300 100 1 0.417000 2.532000 21.410000 112.836998 # HT TIP3
301 101 2 -0.834000 3.007000 14.254000 124.653000 # OT TIP3
302 101 1 0.417000 2.633000 14.133000 123.752998 # HT TIP3
303 101 1 0.417000 3.082000 15.201000 124.654999 # HT TIP3
304 102 2 -0.834000 6.458000 14.097000 80.588997 # OT TIP3
305 102 1 0.417000 6.673000 14.019000 79.612000 # HT TIP3
306 102 1 0.417000 5.899000 14.894000 80.656998 # HT TIP3
307 103 2 -0.834000 28.849001 10.868000 95.172997 # OT TIP3
308 103 1 0.417000 28.170000 10.720000 95.862999 # HT TIP3
309 103 1 0.417000 28.403000 11.419000 94.488998 # HT TIP3
310 104 2 -0.834000 5.552000 2.370000 96.330002 # OT TIP3
311 104 1 0.417000 5.274000 3.194000 95.953003 # HT TIP3
312 104 1 0.417000 5.235000 1.801000 95.570999 # HT TIP3
313 105 2 -0.834000 5.594000 26.266001 91.199997 # OT TIP3
314 105 1 0.417000 4.638000 26.500000 91.195999 # HT TIP3
315 105 1 0.417000 5.758000 25.896999 90.311996 # HT TIP3
316 106 2 -0.834000 11.966000 1.487000 103.664001 # OT TIP3
317 106 1 0.417000 11.835000 2.423000 103.474998 # HT TIP3
318 106 1 0.417000 11.558000 1.092000 102.883003 # HT TIP3
319 107 2 -0.834000 7.580000 13.992000 105.691002 # OT TIP3
320 107 1 0.417000 7.430000 14.886000 105.972000 # HT TIP3
321 107 1 0.417000 7.429000 13.499000 106.481003 # HT TIP3
322 108 2 -0.834000 6.160000 14.744000 83.954002 # OT TIP3
323 108 1 0.417000 7.048000 14.422000 84.207001 # HT TIP3
324 108 1 0.417000 6.008000 15.493000 84.528000 # HT TIP3
325 109 2 -0.834000 2.488000 8.754000 107.837997 # OT TIP3
326 109 1 0.417000 1.778000 9.323000 108.195000 # HT TIP3
327 109 1 0.417000 2.543000 9.043000 106.920998 # HT TIP3
328 110 2 -0.834000 4.348000 28.087000 120.369003 # OT TIP3
329 110 1 0.417000 4.847000 28.254999 121.224998 # HT TIP3
330 110 1 0.417000 3.813000 27.334999 120.661003 # HT TIP3
331 111 2 -0.834000 11.390000 7.386000 94.828003 # OT TIP3
332 111 1 0.417000 11.688000 7.484000 95.731003 # HT TIP3
333 111 1 0.417000 10.844000 6.589000 94.920998 # HT TIP3
334 112 2 -0.834000 2.678000 22.941999 77.035004 # OT TIP3
335 112 1 0.417000 2.272000 22.280001 77.592003 # HT TIP3
336 112 1 0.417000 2.498000 23.809000 77.492996 # HT TIP3
337 113 2 -0.834000 10.630000 22.547001 79.000000 # OT TIP3
338 113 1 0.417000 10.601000 23.471001 78.642998 # HT TIP3
339 113 1 0.417000 10.287000 21.954000 78.311996 # HT TIP3
340 114 2 -0.834000 3.344000 11.571000 78.624001 # OT TIP3
341 114 1 0.417000 3.122000 11.753000 79.553001 # HT TIP3
342 114 1 0.417000 3.947000 10.791000 78.616997 # HT TIP3
343 115 2 -0.834000 3.582000 28.635000 98.063004 # OT TIP3
344 115 1 0.417000 2.826000 28.334000 98.610001 # HT TIP3
345 115 1 0.417000 3.141000 28.872999 97.226997 # HT TIP3
346 116 2 -0.834000 9.123000 8.890000 110.105003 # OT TIP3
347 116 1 0.417000 9.283000 8.539000 111.039001 # HT TIP3
348 116 1 0.417000 9.729000 9.634000 110.000000 # HT TIP3
349 117 2 -0.834000 14.385000 10.769000 105.453003 # OT TIP3
350 117 1 0.417000 14.856000 11.391000 106.061996 # HT TIP3
351 117 1 0.417000 13.599000 10.513000 105.964996 # HT TIP3
352 118 2 -0.834000 6.154000 10.881000 126.096001 # OT TIP3
353 118 1 0.417000 7.020000 11.053000 125.588997 # HT TIP3
354 118 1 0.417000 5.564000 11.243000 125.410004 # HT TIP3
355 119 2 -0.834000 1.823000 24.667999 78.888000 # OT TIP3
356 119 1 0.417000 2.636000 24.316000 79.339996 # HT TIP3
357 119 1 0.417000 1.253000 24.978001 79.639999 # HT TIP3
358 120 2 -0.834000 14.354000 15.758000 124.647003 # OT TIP3
359 120 1 0.417000 15.320000 15.364000 124.686996 # HT TIP3
360 120 1 0.417000 13.830000 15.210000 125.217003 # HT TIP3
361 121 2 -0.834000 17.073000 24.719999 124.915001 # OT TIP3
362 121 1 0.417000 17.726999 24.033001 125.144997 # HT TIP3
363 121 1 0.417000 17.537001 25.370001 124.361000 # HT TIP3
364 122 2 -0.834000 14.220000 25.493999 89.092003 # OT TIP3
365 122 1 0.417000 13.891000 26.382999 89.287003 # HT TIP3
366 122 1 0.417000 14.056000 24.917999 89.852997 # HT TIP3
367 123 2 -0.834000 3.710000 7.185000 83.540001 # OT TIP3
368 123 1 0.417000 3.467000 7.236000 82.560997 # HT TIP3
369 123 1 0.417000 4.410000 7.855000 83.580002 # HT TIP3
370 124 2 -0.834000 7.911000 20.458000 93.334999 # OT TIP3
371 124 1 0.417000 8.517000 21.118000 92.957001 # HT TIP3
372 124 1 0.417000 7.315000 20.136000 92.587997 # HT TIP3
373 125 2 -0.834000 14.336000 25.461000 112.785004 # OT TIP3
374 125 1 0.417000 14.239000 26.164000 113.433998 # HT TIP3
375 125 1 0.417000 14.693000 24.712999 113.244003 # HT TIP3
376 126 2 -0.834000 3.834000 16.042999 110.374001 # OT TIP3
377 126 1 0.417000 3.279000 15.807000 111.123001 # HT TIP3
378 126 1 0.417000 4.607000 15.549000 110.502998 # HT TIP3
379 127 2 -0.834000 24.124001 21.629000 121.624001 # OT TIP3
380 127 1 0.417000 23.110001 21.586000 121.371002 # HT TIP3
381 127 1 0.417000 24.295000 20.663000 121.829002 # HT TIP3
382 128 2 -0.834000 6.179000 21.889999 103.387001 # OT TIP3
383 128 1 0.417000 5.618000 22.606001 103.646004 # HT TIP3
384 128 1 0.417000 6.196000 21.211000 104.107002 # HT TIP3
385 129 2 -0.834000 2.429000 23.410999 126.856003 # OT TIP3
386 129 1 0.417000 2.635000 24.327999 126.606003 # HT TIP3
387 129 1 0.417000 3.359000 23.051001 127.025002 # HT TIP3
388 130 2 -0.834000 17.191999 23.403000 79.781998 # OT TIP3
389 130 1 0.417000 17.363001 23.881001 80.622002 # HT TIP3
390 130 1 0.417000 17.427000 24.065001 79.085999 # HT TIP3
391 131 2 -0.834000 14.540000 23.219999 78.748001 # OT TIP3
392 131 1 0.417000 13.965000 23.475000 79.461998 # HT TIP3
393 131 1 0.417000 15.428000 23.403999 79.073997 # HT TIP3
394 132 2 -0.834000 9.389000 19.165001 106.991997 # OT TIP3
395 132 1 0.417000 8.968000 18.770000 106.209999 # HT TIP3
396 132 1 0.417000 9.417000 18.451000 107.640999 # HT TIP3
397 133 2 -0.834000 11.438000 22.237000 117.009003 # OT TIP3
398 133 1 0.417000 11.846000 21.740000 116.267998 # HT TIP3
399 133 1 0.417000 10.577000 22.480000 116.711998 # HT TIP3
400 134 2 -0.834000 16.326000 27.968000 107.402000 # OT TIP3
401 134 1 0.417000 15.453000 27.736000 106.928001 # HT TIP3
402 134 1 0.417000 16.068001 28.620001 108.032997 # HT TIP3
403 135 2 -0.834000 4.271000 19.974001 119.186996 # OT TIP3
404 135 1 0.417000 4.458000 19.073000 118.987999 # HT TIP3
405 135 1 0.417000 4.320000 20.429001 118.313004 # HT TIP3
406 136 2 -0.834000 9.181000 24.465000 83.637001 # OT TIP3
407 136 1 0.417000 10.007000 24.937000 83.703003 # HT TIP3
408 136 1 0.417000 8.517000 25.117001 83.311996 # HT TIP3
409 137 2 -0.834000 11.929000 15.750000 81.718002 # OT TIP3
410 137 1 0.417000 11.050000 15.541000 81.407997 # HT TIP3
411 137 1 0.417000 12.401000 14.879000 81.717003 # HT TIP3
412 138 2 -0.834000 20.659000 26.552000 93.448997 # OT TIP3
413 138 1 0.417000 21.181999 27.346001 93.499001 # HT TIP3
414 138 1 0.417000 19.733999 26.858000 93.380997 # HT TIP3
415 139 2 -0.834000 3.086000 26.452000 94.194000 # OT TIP3
416 139 1 0.417000 3.174000 26.923000 93.393997 # HT TIP3
417 139 1 0.417000 2.272000 26.868999 94.603996 # HT TIP3
418 140 2 -0.834000 2.683000 26.667000 102.332001 # OT TIP3
419 140 1 0.417000 3.580000 26.907000 102.426003 # HT TIP3
420 140 1 0.417000 2.485000 26.226999 103.125999 # HT TIP3
421 141 2 -0.834000 24.330999 22.618999 94.069000 # OT TIP3
422 141 1 0.417000 24.136999 23.516001 94.456001 # HT TIP3
423 141 1 0.417000 23.663000 21.985001 94.449997 # HT TIP3
424 142 2 -0.834000 16.417999 18.291000 125.569000 # OT TIP3
425 142 1 0.417000 17.084000 18.059000 124.956001 # HT TIP3
426 142 1 0.417000 16.983999 18.822001 126.135002 # HT TIP3
427 143 2 -0.834000 17.507000 18.170000 97.005997 # OT TIP3
428 143 1 0.417000 18.226000 18.006001 96.294998 # HT TIP3
429 143 1 0.417000 17.030001 17.297001 97.082001 # HT TIP3
430 144 2 -0.834000 4.790000 24.318001 102.067001 # OT TIP3
431 144 1 0.417000 5.111000 24.684000 102.901001 # HT TIP3
432 144 1 0.417000 3.835000 24.195999 102.248001 # HT TIP3
433 145 2 -0.834000 5.235000 25.410000 128.373993 # OT TIP3
434 145 1 0.417000 5.675000 26.136000 128.820007 # HT TIP3
435 145 1 0.417000 4.576000 25.891001 127.766998 # HT TIP3
436 146 2 -0.834000 1.747000 5.469000 86.579002 # OT TIP3
437 146 1 0.417000 1.426000 4.568000 86.338997 # HT TIP3
438 146 1 0.417000 2.505000 5.585000 85.989998 # HT TIP3
439 147 2 -0.834000 16.721001 3.984000 121.033997 # OT TIP3
440 147 1 0.417000 16.917000 4.285000 121.986000 # HT TIP3
441 147 1 0.417000 15.948000 4.470000 120.776001 # HT TIP3
442 148 2 -0.834000 6.356000 6.388000 92.045998 # OT TIP3
443 148 1 0.417000 6.884000 7.064000 92.460999 # HT TIP3
444 148 1 0.417000 6.592000 5.622000 92.537003 # HT TIP3
445 149 2 -0.834000 2.889000 6.585000 105.541000 # OT TIP3
446 149 1 0.417000 2.938000 7.502000 105.263000 # HT TIP3
447 149 1 0.417000 2.015000 6.312000 105.144997 # HT TIP3
448 150 2 -0.834000 3.681000 3.548000 117.152000 # OT TIP3
449 150 1 0.417000 3.598000 2.590000 116.994003 # HT TIP3
450 150 1 0.417000 4.370000 3.657000 117.870003 # HT TIP3
451 151 2 -0.834000 11.704000 7.721000 91.883003 # OT TIP3
452 151 1 0.417000 11.901000 7.912000 92.835999 # HT TIP3
453 151 1 0.417000 11.127000 6.972000 91.998001 # HT TIP3
454 152 2 -0.834000 27.896999 13.094000 76.679001 # OT TIP3
455 152 1 0.417000 27.514000 12.280000 76.304001 # HT TIP3
456 152 1 0.417000 28.875000 12.927000 76.553001 # HT TIP3
457 153 2 -0.834000 3.189000 2.706000 100.877998 # OT TIP3
458 153 1 0.417000 2.464000 2.091000 100.709999 # HT TIP3
459 153 1 0.417000 3.125000 2.805000 101.900002 # HT TIP3
460 154 2 -0.834000 12.763000 20.614000 85.958000 # OT TIP3
461 154 1 0.417000 13.279000 21.405001 85.865997 # HT TIP3
462 154 1 0.417000 13.435000 19.905001 85.901001 # HT TIP3
463 155 2 -0.834000 8.864000 11.603000 104.949997 # OT TIP3
464 155 1 0.417000 8.469000 12.275000 105.507004 # HT TIP3
465 155 1 0.417000 8.154000 10.992000 104.782997 # HT TIP3
466 156 2 -0.834000 5.647000 7.632000 113.533997 # OT TIP3
467 156 1 0.417000 4.842000 7.176000 113.197998 # HT TIP3
468 156 1 0.417000 5.630000 8.486000 113.089996 # HT TIP3
469 157 2 -0.834000 11.893000 9.416000 106.315002 # OT TIP3
470 157 1 0.417000 11.739000 8.787000 105.538002 # HT TIP3
471 157 1 0.417000 11.361000 8.971000 106.973999 # HT TIP3
472 158 2 -0.834000 8.085000 13.323000 120.901001 # OT TIP3
473 158 1 0.417000 8.028000 12.515000 121.480003 # HT TIP3
474 158 1 0.417000 8.997000 13.362000 120.642998 # HT TIP3
475 159 2 -0.834000 8.027000 3.224000 89.411003 # OT TIP3
476 159 1 0.417000 7.185000 3.801000 89.535004 # HT TIP3
477 159 1 0.417000 7.692000 2.403000 89.741997 # HT TIP3
478 160 2 -0.834000 18.812000 6.771000 81.875999 # OT TIP3
479 160 1 0.417000 18.219999 7.316000 81.379997 # HT TIP3
480 160 1 0.417000 18.551001 5.869000 81.668999 # HT TIP3
481 161 2 -0.834000 5.028000 8.699000 88.776001 # OT TIP3
482 161 1 0.417000 5.577000 8.193000 88.138000 # HT TIP3
483 161 1 0.417000 4.171000 8.320000 88.543999 # HT TIP3
484 162 2 -0.834000 12.049000 10.880000 102.882004 # OT TIP3
485 162 1 0.417000 12.395000 10.481000 103.654999 # HT TIP3
486 162 1 0.417000 12.905000 11.095000 102.383003 # HT TIP3
487 163 2 -0.834000 23.132999 3.886000 95.843002 # OT TIP3
488 163 1 0.417000 23.929001 3.596000 96.262001 # HT TIP3
489 163 1 0.417000 22.486000 3.828000 96.560997 # HT TIP3
490 164 2 -0.834000 21.975000 8.300000 106.575996 # OT TIP3
491 164 1 0.417000 22.781000 7.730000 106.418999 # HT TIP3
492 164 1 0.417000 22.289000 8.819000 107.305000 # HT TIP3
493 165 2 -0.834000 13.521000 14.016000 122.723999 # OT TIP3
494 165 1 0.417000 13.811000 14.641000 123.535004 # HT TIP3
495 165 1 0.417000 14.265000 13.384000 122.647003 # HT TIP3
496 166 2 -0.834000 4.079000 6.719000 128.434998 # OT TIP3
497 166 1 0.417000 3.100000 6.778000 128.386002 # HT TIP3
498 166 1 0.417000 4.279000 7.534000 128.962006 # HT TIP3
499 167 2 -0.834000 13.493000 10.451000 78.214996 # OT TIP3
500 167 1 0.417000 13.908000 10.840000 78.987000 # HT TIP3
501 167 1 0.417000 13.982000 9.641000 78.039001 # HT TIP3
502 168 2 -0.834000 12.177000 10.610000 83.928001 # OT TIP3
503 168 1 0.417000 11.443000 11.172000 84.053001 # HT TIP3
504 168 1 0.417000 11.866000 9.788000 84.297997 # HT TIP3
505 169 2 -0.834000 2.838000 4.206000 91.398003 # OT TIP3
506 169 1 0.417000 3.201000 5.081000 91.544998 # HT TIP3
507 169 1 0.417000 3.117000 3.999000 90.421997 # HT TIP3
508 170 2 -0.834000 17.132999 13.593000 92.907997 # OT TIP3