LAMMPS data file. CGCMM style. atom_style full generated by VMD/TopoTools v1.1 on Wed Jun 20 01:50:33 +0800 2012
 1641 atoms
 1094 bonds
 547 angles
 0 dihedrals
 0 impropers
 2 atom types
 1 bond types
 1 angle types
 0 dihedral types
 0 improper types
 0.957001 28.957001  xlo xhi
 0.913000 28.913000  ylo yhi
 76.048500 99.048500  zlo zhi

# Pair Coeffs
#
# 1  HT
# 2  OT

# Bond Coeffs
#
# 1  

# Angle Coeffs
#
# 1  unknown

 Masses

 1 1.007940 # HT
 2 15.999400 # OT

 Atoms

1 1 2 -0.834000 4.668000 11.082000 91.903999 # OT TIP3
2 1 1 0.417000 4.224000 11.451000 91.100998 # HT TIP3
3 1 1 0.417000 4.092000 11.379000 92.626999 # HT TIP3
4 2 2 -0.834000 7.033000 5.876000 96.890999 # OT TIP3
5 2 1 0.417000 7.078000 6.224000 97.797997 # HT TIP3
6 2 1 0.417000 7.592000 5.088000 96.960999 # HT TIP3
7 3 2 -0.834000 6.186000 17.695999 88.071999 # OT TIP3
8 3 1 0.417000 7.083000 17.979000 87.816002 # HT TIP3
9 3 1 0.417000 6.337000 16.832001 88.489998 # HT TIP3
10 4 2 -0.834000 9.324000 14.811000 97.332001 # OT TIP3
11 4 1 0.417000 9.633000 14.348000 98.112000 # HT TIP3
12 4 1 0.417000 9.506000 14.116000 96.644997 # HT TIP3
13 5 2 -0.834000 4.786000 17.318001 77.309998 # OT TIP3
14 5 1 0.417000 4.781000 16.388000 77.195999 # HT TIP3
15 5 1 0.417000 5.528000 17.580000 76.780998 # HT TIP3
16 6 2 -0.834000 7.205000 7.991000 94.442001 # OT TIP3
17 6 1 0.417000 7.782000 8.347000 95.152000 # HT TIP3
18 6 1 0.417000 6.309000 8.062000 94.800003 # HT TIP3
19 7 2 -0.834000 17.125999 15.701000 80.577003 # OT TIP3
20 7 1 0.417000 17.070000 15.272000 79.725998 # HT TIP3
21 7 1 0.417000 17.805000 16.454000 80.445000 # HT TIP3
22 8 2 -0.834000 3.750000 9.844000 85.628998 # OT TIP3
23 8 1 0.417000 3.110000 9.290000 85.998001 # HT TIP3
24 8 1 0.417000 3.164000 10.245000 84.961998 # HT TIP3
25 9 2 -0.834000 4.935000 17.195000 98.109001 # OT TIP3
26 9 1 0.417000 5.870000 17.034000 97.985001 # HT TIP3
27 9 1 0.417000 4.655000 16.367001 98.581001 # HT TIP3
28 10 2 -0.834000 11.674000 9.909000 80.986000 # OT TIP3
29 10 1 0.417000 11.998000 9.871000 81.931999 # HT TIP3
30 10 1 0.417000 10.748000 10.270000 81.074997 # HT TIP3
31 11 2 -0.834000 1.002000 6.667000 90.591003 # OT TIP3
32 11 1 0.417000 1.483000 6.990000 89.830002 # HT TIP3
33 11 1 0.417000 1.608000 6.781000 91.347000 # HT TIP3
34 12 2 -0.834000 10.882000 10.156000 90.916000 # OT TIP3
35 12 1 0.417000 10.574000 10.753000 91.597000 # HT TIP3
36 12 1 0.417000 11.021000 9.264000 91.289001 # HT TIP3
37 13 2 -0.834000 2.661000 7.681000 77.943001 # OT TIP3
38 13 1 0.417000 2.943000 6.739000 77.981003 # HT TIP3
39 13 1 0.417000 1.778000 7.599000 77.483002 # HT TIP3
40 14 2 -0.834000 5.821000 21.603001 87.238998 # OT TIP3
41 14 1 0.417000 6.466000 21.782000 87.962997 # HT TIP3
42 14 1 0.417000 6.384000 21.914000 86.456001 # HT TIP3
43 15 2 -0.834000 16.021999 21.855000 88.831001 # OT TIP3
44 15 1 0.417000 15.222000 21.809000 89.292000 # HT TIP3
45 15 1 0.417000 15.673000 22.056999 87.917999 # HT TIP3
46 16 2 -0.834000 6.608000 24.917999 88.959000 # OT TIP3
47 16 1 0.417000 5.840000 24.622000 88.544998 # HT TIP3
48 16 1 0.417000 7.037000 25.336000 88.208000 # HT TIP3
49 17 2 -0.834000 11.426000 8.604000 78.403999 # OT TIP3
50 17 1 0.417000 11.761000 9.401000 77.994003 # HT TIP3
51 17 1 0.417000 11.248000 8.889000 79.307999 # HT TIP3
52 18 2 -0.834000 9.569000 26.684000 88.210999 # OT TIP3
53 18 1 0.417000 10.123000 26.542000 89.014999 # HT TIP3
54 18 1 0.417000 9.805000 27.594999 87.927002 # HT TIP3
55 19 2 -0.834000 5.269000 23.752001 92.264999 # OT TIP3
56 19 1 0.417000 5.149000 24.680000 91.888000 # HT TIP3
57 19 1 0.417000 6.061000 23.796000 92.776001 # HT TIP3
58 20 2 -0.834000 23.572001 7.242000 79.477997 # OT TIP3
59 20 1 0.417000 22.705000 6.845000 79.830002 # HT TIP3
60 20 1 0.417000 23.951000 6.659000 78.858002 # HT TIP3
61 21 2 -0.834000 11.926000 6.365000 77.017998 # OT TIP3
62 21 1 0.417000 12.138000 5.769000 77.753998 # HT TIP3
63 21 1 0.417000 11.657000 7.212000 77.492996 # HT TIP3
64 22 2 -0.834000 9.647000 5.314000 95.278000 # OT TIP3
65 22 1 0.417000 8.964000 4.611000 95.325996 # HT TIP3
66 22 1 0.417000 9.043000 6.064000 95.153000 # HT TIP3
67 23 2 -0.834000 1.802000 26.084000 81.523003 # OT TIP3
68 23 1 0.417000 1.579000 27.065001 81.504997 # HT TIP3
69 23 1 0.417000 2.795000 26.163000 81.445000 # HT TIP3
70 24 2 -0.834000 5.299000 18.774000 83.168999 # OT TIP3
71 24 1 0.417000 4.303000 18.802999 83.321999 # HT TIP3
72 24 1 0.417000 5.533000 19.754999 82.924004 # HT TIP3
73 25 2 -0.834000 9.892000 13.977000 81.320999 # OT TIP3
74 25 1 0.417000 9.119000 13.478000 81.443001 # HT TIP3
75 25 1 0.417000 10.342000 13.557000 80.536003 # HT TIP3
76 26 2 -0.834000 3.174000 19.468000 78.211998 # OT TIP3
77 26 1 0.417000 3.632000 18.628000 78.203003 # HT TIP3
78 26 1 0.417000 3.931000 20.120001 78.280998 # HT TIP3
79 27 2 -0.834000 14.612000 18.680000 94.622002 # OT TIP3
80 27 1 0.417000 14.744000 18.414000 95.508003 # HT TIP3
81 27 1 0.417000 15.526000 18.830999 94.347000 # HT TIP3
82 28 2 -0.834000 16.414000 7.569000 78.500999 # OT TIP3
83 28 1 0.417000 17.224001 7.858000 78.127998 # HT TIP3
84 28 1 0.417000 15.808000 7.700000 77.670998 # HT TIP3
85 29 2 -0.834000 10.935000 13.876000 86.191002 # OT TIP3
86 29 1 0.417000 10.709000 13.098000 85.634003 # HT TIP3
87 29 1 0.417000 10.472000 13.766000 87.017998 # HT TIP3
88 30 2 -0.834000 8.060000 3.074000 95.830002 # OT TIP3
89 30 1 0.417000 8.650000 2.619000 96.528000 # HT TIP3
90 30 1 0.417000 7.148000 2.796000 96.035004 # HT TIP3
91 31 2 -0.834000 14.891000 2.919000 78.991997 # OT TIP3
92 31 1 0.417000 15.198000 3.681000 79.421997 # HT TIP3
93 31 1 0.417000 14.212000 2.577000 79.578003 # HT TIP3
94 32 2 -0.834000 9.823000 11.581000 84.827003 # OT TIP3
95 32 1 0.417000 9.183000 11.753000 84.148003 # HT TIP3
96 32 1 0.417000 9.389000 11.061000 85.533997 # HT TIP3
97 33 2 -0.834000 10.078000 12.967000 88.734001 # OT TIP3
98 33 1 0.417000 9.228000 12.561000 88.992996 # HT TIP3
99 33 1 0.417000 10.512000 13.194000 89.559998 # HT TIP3
100 34 2 -0.834000 11.282000 1.640000 78.053001 # OT TIP3
101 34 1 0.417000 11.367000 1.959000 79.015999 # HT TIP3
102 34 1 0.417000 10.743000 2.323000 77.667000 # HT TIP3
103 35 2 -0.834000 5.618000 9.125000 83.777000 # OT TIP3
104 35 1 0.417000 6.405000 8.919000 84.314003 # HT TIP3
105 35 1 0.417000 5.002000 9.458000 84.421997 # HT TIP3
106 36 2 -0.834000 4.403000 5.687000 85.815002 # OT TIP3
107 36 1 0.417000 4.109000 6.272000 85.097000 # HT TIP3
108 36 1 0.417000 4.817000 4.973000 85.327003 # HT TIP3
109 37 2 -0.834000 4.276000 8.465000 95.324997 # OT TIP3
110 37 1 0.417000 3.772000 7.991000 95.963997 # HT TIP3
111 37 1 0.417000 4.604000 9.288000 95.752998 # HT TIP3
112 38 2 -0.834000 4.119000 11.325000 89.157997 # OT TIP3
113 38 1 0.417000 4.598000 11.900000 88.512001 # HT TIP3
114 38 1 0.417000 4.440000 10.430000 88.961998 # HT TIP3
115 39 2 -0.834000 3.378000 6.806000 92.252998 # OT TIP3
116 39 1 0.417000 3.157000 7.161000 93.098999 # HT TIP3
117 39 1 0.417000 4.301000 7.032000 92.125999 # HT TIP3
118 40 2 -0.834000 7.382000 23.271000 78.319000 # OT TIP3
119 40 1 0.417000 6.550000 23.035000 77.847000 # HT TIP3
120 40 1 0.417000 7.859000 22.472000 78.192001 # HT TIP3
121 41 2 -0.834000 5.017000 4.905000 95.417999 # OT TIP3
122 41 1 0.417000 4.142000 5.042000 95.132004 # HT TIP3
123 41 1 0.417000 5.582000 5.727000 95.294998 # HT TIP3
124 42 2 -0.834000 3.344000 21.472000 97.630997 # OT TIP3
125 42 1 0.417000 3.932000 21.820999 96.945000 # HT TIP3
126 42 1 0.417000 2.467000 21.548000 97.138000 # HT TIP3
127 43 2 -0.834000 21.613001 14.616000 87.066002 # OT TIP3
128 43 1 0.417000 21.739000 14.959000 86.218002 # HT TIP3
129 43 1 0.417000 20.618999 14.816000 87.250000 # HT TIP3
130 44 2 -0.834000 15.526000 11.532000 96.137001 # OT TIP3
131 44 1 0.417000 15.162000 10.733000 96.502998 # HT TIP3
132 44 1 0.417000 15.466000 11.420000 95.194000 # HT TIP3
133 45 2 -0.834000 27.124001 17.594000 92.806999 # OT TIP3
134 45 1 0.417000 27.948000 17.864000 93.244003 # HT TIP3
135 45 1 0.417000 27.136999 18.048000 91.900002 # HT TIP3
136 46 2 -0.834000 6.573000 15.804000 95.089996 # OT TIP3
137 46 1 0.417000 6.959000 16.339001 95.807999 # HT TIP3
138 46 1 0.417000 6.869000 16.413000 94.331001 # HT TIP3
139 47 2 -0.834000 17.283001 8.354000 98.780998 # OT TIP3
140 47 1 0.417000 16.639999 9.058000 98.448997 # HT TIP3
141 47 1 0.417000 16.973000 7.560000 98.378998 # HT TIP3
142 48 2 -0.834000 23.872000 19.441000 92.788002 # OT TIP3
143 48 1 0.417000 23.201000 18.864000 92.378998 # HT TIP3
144 48 1 0.417000 23.334999 19.981001 93.425003 # HT TIP3
145 49 2 -0.834000 6.458000 14.097000 80.588997 # OT TIP3
146 49 1 0.417000 6.673000 14.019000 79.612000 # HT TIP3
147 49 1 0.417000 5.899000 14.894000 80.656998 # HT TIP3
148 50 2 -0.834000 28.849001 10.868000 95.172997 # OT TIP3
149 50 1 0.417000 28.170000 10.720000 95.862999 # HT TIP3
150 50 1 0.417000 28.403000 11.419000 94.488998 # HT TIP3
151 51 2 -0.834000 5.552000 2.370000 96.330002 # OT TIP3
152 51 1 0.417000 5.274000 3.194000 95.953003 # HT TIP3
153 51 1 0.417000 5.235000 1.801000 95.570999 # HT TIP3
154 52 2 -0.834000 5.594000 26.266001 91.199997 # OT TIP3
155 52 1 0.417000 4.638000 26.500000 91.195999 # HT TIP3
156 52 1 0.417000 5.758000 25.896999 90.311996 # HT TIP3
157 53 2 -0.834000 6.160000 14.744000 83.954002 # OT TIP3
158 53 1 0.417000 7.048000 14.422000 84.207001 # HT TIP3
159 53 1 0.417000 6.008000 15.493000 84.528000 # HT TIP3
160 54 2 -0.834000 11.390000 7.386000 94.828003 # OT TIP3
161 54 1 0.417000 11.688000 7.484000 95.731003 # HT TIP3
162 54 1 0.417000 10.844000 6.589000 94.920998 # HT TIP3
163 55 2 -0.834000 2.678000 22.941999 77.035004 # OT TIP3
164 55 1 0.417000 2.272000 22.280001 77.592003 # HT TIP3
165 55 1 0.417000 2.498000 23.809000 77.492996 # HT TIP3
166 56 2 -0.834000 10.630000 22.547001 79.000000 # OT TIP3
167 56 1 0.417000 10.601000 23.471001 78.642998 # HT TIP3
168 56 1 0.417000 10.287000 21.954000 78.311996 # HT TIP3
169 57 2 -0.834000 3.344000 11.571000 78.624001 # OT TIP3
170 57 1 0.417000 3.122000 11.753000 79.553001 # HT TIP3
171 57 1 0.417000 3.947000 10.791000 78.616997 # HT TIP3
172 58 2 -0.834000 3.582000 28.635000 98.063004 # OT TIP3
173 58 1 0.417000 2.826000 28.334000 98.610001 # HT TIP3
174 58 1 0.417000 3.141000 28.872999 97.226997 # HT TIP3
175 59 2 -0.834000 1.823000 24.667999 78.888000 # OT TIP3
176 59 1 0.417000 2.636000 24.316000 79.339996 # HT TIP3
177 59 1 0.417000 1.253000 24.978001 79.639999 # HT TIP3
178 60 2 -0.834000 14.220000 25.493999 89.092003 # OT TIP3
179 60 1 0.417000 13.891000 26.382999 89.287003 # HT TIP3
180 60 1 0.417000 14.056000 24.917999 89.852997 # HT TIP3
181 61 2 -0.834000 3.710000 7.185000 83.540001 # OT TIP3
182 61 1 0.417000 3.467000 7.236000 82.560997 # HT TIP3
183 61 1 0.417000 4.410000 7.855000 83.580002 # HT TIP3
184 62 2 -0.834000 7.911000 20.458000 93.334999 # OT TIP3
185 62 1 0.417000 8.517000 21.118000 92.957001 # HT TIP3
186 62 1 0.417000 7.315000 20.136000 92.587997 # HT TIP3
187 63 2 -0.834000 17.191999 23.403000 79.781998 # OT TIP3
188 63 1 0.417000 17.363001 23.881001 80.622002 # HT TIP3
189 63 1 0.417000 17.427000 24.065001 79.085999 # HT TIP3
190 64 2 -0.834000 14.540000 23.219999 78.748001 # OT TIP3
191 64 1 0.417000 13.965000 23.475000 79.461998 # HT TIP3
192 64 1 0.417000 15.428000 23.403999 79.073997 # HT TIP3
193 65 2 -0.834000 9.181000 24.465000 83.637001 # OT TIP3
194 65 1 0.417000 10.007000 24.937000 83.703003 # HT TIP3
195 65 1 0.417000 8.517000 25.117001 83.311996 # HT TIP3
196 66 2 -0.834000 11.929000 15.750000 81.718002 # OT TIP3
197 66 1 0.417000 11.050000 15.541000 81.407997 # HT TIP3
198 66 1 0.417000 12.401000 14.879000 81.717003 # HT TIP3
199 67 2 -0.834000 20.659000 26.552000 93.448997 # OT TIP3
200 67 1 0.417000 21.181999 27.346001 93.499001 # HT TIP3
201 67 1 0.417000 19.733999 26.858000 93.380997 # HT TIP3
202 68 2 -0.834000 3.086000 26.452000 94.194000 # OT TIP3
203 68 1 0.417000 3.174000 26.923000 93.393997 # HT TIP3
204 68 1 0.417000 2.272000 26.868999 94.603996 # HT TIP3
205 69 2 -0.834000 24.330999 22.618999 94.069000 # OT TIP3
206 69 1 0.417000 24.136999 23.516001 94.456001 # HT TIP3
207 69 1 0.417000 23.663000 21.985001 94.449997 # HT TIP3
208 70 2 -0.834000 17.507000 18.170000 97.005997 # OT TIP3
209 70 1 0.417000 18.226000 18.006001 96.294998 # HT TIP3
210 70 1 0.417000 17.030001 17.297001 97.082001 # HT TIP3
211 71 2 -0.834000 1.747000 5.469000 86.579002 # OT TIP3
212 71 1 0.417000 1.426000 4.568000 86.338997 # HT TIP3
213 71 1 0.417000 2.505000 5.585000 85.989998 # HT TIP3
214 72 2 -0.834000 6.356000 6.388000 92.045998 # OT TIP3
215 72 1 0.417000 6.884000 7.064000 92.460999 # HT TIP3
216 72 1 0.417000 6.592000 5.622000 92.537003 # HT TIP3
217 73 2 -0.834000 11.704000 7.721000 91.883003 # OT TIP3
218 73 1 0.417000 11.901000 7.912000 92.835999 # HT TIP3
219 73 1 0.417000 11.127000 6.972000 91.998001 # HT TIP3
220 74 2 -0.834000 27.896999 13.094000 76.679001 # OT TIP3
221 74 1 0.417000 27.514000 12.280000 76.304001 # HT TIP3
222 74 1 0.417000 28.875000 12.927000 76.553001 # HT TIP3
223 75 2 -0.834000 12.763000 20.614000 85.958000 # OT TIP3
224 75 1 0.417000 13.279000 21.405001 85.865997 # HT TIP3
225 75 1 0.417000 13.435000 19.905001 85.901001 # HT TIP3
226 76 2 -0.834000 8.027000 3.224000 89.411003 # OT TIP3
227 76 1 0.417000 7.185000 3.801000 89.535004 # HT TIP3
228 76 1 0.417000 7.692000 2.403000 89.741997 # HT TIP3
229 77 2 -0.834000 18.812000 6.771000 81.875999 # OT TIP3
230 77 1 0.417000 18.219999 7.316000 81.379997 # HT TIP3
231 77 1 0.417000 18.551001 5.869000 81.668999 # HT TIP3
232 78 2 -0.834000 5.028000 8.699000 88.776001 # OT TIP3
233 78 1 0.417000 5.577000 8.193000 88.138000 # HT TIP3
234 78 1 0.417000 4.171000 8.320000 88.543999 # HT TIP3
235 79 2 -0.834000 23.132999 3.886000 95.843002 # OT TIP3
236 79 1 0.417000 23.929001 3.596000 96.262001 # HT TIP3
237 79 1 0.417000 22.486000 3.828000 96.560997 # HT TIP3
238 80 2 -0.834000 13.493000 10.451000 78.214996 # OT TIP3
239 80 1 0.417000 13.908000 10.840000 78.987000 # HT TIP3
240 80 1 0.417000 13.982000 9.641000 78.039001 # HT TIP3
241 81 2 -0.834000 12.177000 10.610000 83.928001 # OT TIP3
242 81 1 0.417000 11.443000 11.172000 84.053001 # HT TIP3
243 81 1 0.417000 11.866000 9.788000 84.297997 # HT TIP3
244 82 2 -0.834000 2.838000 4.206000 91.398003 # OT TIP3
245 82 1 0.417000 3.201000 5.081000 91.544998 # HT TIP3
246 82 1 0.417000 3.117000 3.999000 90.421997 # HT TIP3
247 83 2 -0.834000 17.132999 13.593000 92.907997 # OT TIP3
248 83 1 0.417000 16.351999 13.769000 92.390999 # HT TIP3
249 83 1 0.417000 16.886999 12.876000 93.511002 # HT TIP3
250 84 2 -0.834000 2.899000 12.624000 93.892998 # OT TIP3
251 84 1 0.417000 2.139000 12.678000 93.305000 # HT TIP3
252 84 1 0.417000 3.258000 13.535000 93.855003 # HT TIP3
253 85 2 -0.834000 10.220000 14.904000 93.339996 # OT TIP3
254 85 1 0.417000 11.062000 15.198000 93.737999 # HT TIP3
255 85 1 0.417000 10.394000 13.999000 93.101997 # HT TIP3
256 86 2 -0.834000 4.458000 10.868000 98.418999 # OT TIP3
257 86 1 0.417000 5.398000 11.016000 98.653999 # HT TIP3
258 86 1 0.417000 4.448000 11.189000 97.495003 # HT TIP3
259 87 2 -0.834000 19.441000 17.134001 79.839996 # OT TIP3
260 87 1 0.417000 19.610001 17.488001 78.968002 # HT TIP3
261 87 1 0.417000 20.113001 16.407000 79.960999 # HT TIP3
262 88 2 -0.834000 16.430000 4.274000 83.406998 # OT TIP3
263 88 1 0.417000 16.458000 3.741000 84.156998 # HT TIP3
264 88 1 0.417000 16.933001 3.740000 82.769997 # HT TIP3
265 89 2 -0.834000 14.134000 5.535000 82.558998 # OT TIP3
266 89 1 0.417000 13.434000 4.932000 82.938004 # HT TIP3
267 89 1 0.417000 14.959000 5.162000 82.964996 # HT TIP3
268 90 2 -0.834000 17.320999 20.495001 91.870003 # OT TIP3
269 90 1 0.417000 17.959999 20.159000 91.192001 # HT TIP3
270 90 1 0.417000 17.854000 21.132000 92.388000 # HT TIP3
271 91 2 -0.834000 11.295000 15.066000 90.320000 # OT TIP3
272 91 1 0.417000 11.592000 15.067000 91.225998 # HT TIP3
273 91 1 0.417000 10.322000 15.226000 90.349998 # HT TIP3
274 92 2 -0.834000 17.007999 18.797001 87.410004 # OT TIP3
275 92 1 0.417000 17.695000 18.702000 86.683998 # HT TIP3
276 92 1 0.417000 16.186001 18.521000 86.942001 # HT TIP3
277 93 2 -0.834000 16.398001 2.552000 94.246002 # OT TIP3
278 93 1 0.417000 17.016001 2.951000 93.566002 # HT TIP3
279 93 1 0.417000 15.574000 3.011000 94.109001 # HT TIP3
280 94 2 -0.834000 8.830000 20.750999 77.995003 # OT TIP3
281 94 1 0.417000 8.257000 20.870001 77.247002 # HT TIP3
282 94 1 0.417000 9.329000 19.923000 77.885002 # HT TIP3
283 95 2 -0.834000 14.663000 27.431999 82.528999 # OT TIP3
284 95 1 0.417000 14.851000 27.261000 83.482002 # HT TIP3
285 95 1 0.417000 14.355000 28.375000 82.531998 # HT TIP3
286 96 2 -0.834000 16.027000 12.249000 85.806000 # OT TIP3
287 96 1 0.417000 16.636000 11.953000 85.103996 # HT TIP3
288 96 1 0.417000 15.929000 13.194000 85.544998 # HT TIP3
289 97 2 -0.834000 11.274000 12.448000 96.959000 # OT TIP3
290 97 1 0.417000 11.893000 12.073000 97.653999 # HT TIP3
291 97 1 0.417000 11.344000 11.891000 96.237999 # HT TIP3
292 98 2 -0.834000 12.473000 7.075000 97.702003 # OT TIP3
293 98 1 0.417000 13.046000 6.667000 98.431000 # HT TIP3
294 98 1 0.417000 11.554000 6.939000 98.099998 # HT TIP3
295 99 2 -0.834000 14.912000 27.462000 78.286003 # OT TIP3
296 99 1 0.417000 14.667000 28.388000 78.539001 # HT TIP3
297 99 1 0.417000 14.488000 26.916000 79.000000 # HT TIP3
298 100 2 -0.834000 22.007999 4.270000 91.172997 # OT TIP3
299 100 1 0.417000 21.389999 5.036000 91.084000 # HT TIP3
300 100 1 0.417000 22.768000 4.592000 90.749001 # HT TIP3
301 101 2 -0.834000 7.800000 17.659000 93.183998 # OT TIP3
302 101 1 0.417000 8.143000 17.649000 92.327003 # HT TIP3
303 101 1 0.417000 8.109000 18.502001 93.568001 # HT TIP3
304 102 2 -0.834000 15.603000 19.110001 79.212997 # OT TIP3
305 102 1 0.417000 15.275000 18.655001 79.962997 # HT TIP3
306 102 1 0.417000 14.842000 19.606001 78.877998 # HT TIP3
307 103 2 -0.834000 5.753000 21.139000 81.474998 # OT TIP3
308 103 1 0.417000 5.769000 22.052999 81.846001 # HT TIP3
309 103 1 0.417000 6.663000 21.031000 81.200996 # HT TIP3
310 104 2 -0.834000 2.615000 18.355000 90.355003 # OT TIP3
311 104 1 0.417000 2.225000 17.480000 90.419998 # HT TIP3
312 104 1 0.417000 1.859000 18.983999 90.051003 # HT TIP3
313 105 2 -0.834000 12.087000 16.787001 96.150002 # OT TIP3
314 105 1 0.417000 12.221000 15.877000 95.697998 # HT TIP3
315 105 1 0.417000 12.936000 16.940001 96.591003 # HT TIP3
316 106 2 -0.834000 10.784000 19.059999 92.439003 # OT TIP3
317 106 1 0.417000 11.576000 19.166000 91.921997 # HT TIP3
318 106 1 0.417000 10.941000 19.584000 93.234001 # HT TIP3
319 107 2 -0.834000 3.369000 20.620001 86.837997 # OT TIP3
320 107 1 0.417000 3.051000 20.424999 87.700996 # HT TIP3
321 107 1 0.417000 4.347000 20.716999 86.922997 # HT TIP3
322 108 2 -0.834000 16.158001 16.218000 77.453003 # OT TIP3
323 108 1 0.417000 16.285999 17.122999 77.160004 # HT TIP3
324 108 1 0.417000 15.175000 16.219000 77.586998 # HT TIP3
325 109 2 -0.834000 8.929000 10.601000 80.321999 # OT TIP3
326 109 1 0.417000 8.364000 11.340000 79.912003 # HT TIP3
327 109 1 0.417000 8.318000 10.011000 80.820000 # HT TIP3
328 110 2 -0.834000 11.209000 27.934999 77.973000 # OT TIP3
329 110 1 0.417000 10.397000 28.288000 77.519997 # HT TIP3
330 110 1 0.417000 11.523000 28.672001 78.624001 # HT TIP3
331 111 2 -0.834000 8.125000 27.007999 92.205002 # OT TIP3
332 111 1 0.417000 8.305000 27.912001 91.994003 # HT TIP3
333 111 1 0.417000 7.285000 26.889000 91.734001 # HT TIP3
334 112 2 -0.834000 12.585000 24.121000 95.455002 # OT TIP3
335 112 1 0.417000 13.413000 24.205000 95.982002 # HT TIP3
336 112 1 0.417000 11.816000 24.266001 96.095001 # HT TIP3
337 113 2 -0.834000 14.755000 26.794001 85.519997 # OT TIP3
338 113 1 0.417000 13.826000 26.669001 85.766998 # HT TIP3
339 113 1 0.417000 15.148000 26.750999 86.374001 # HT TIP3
340 114 2 -0.834000 7.703000 27.593000 80.848000 # OT TIP3
341 114 1 0.417000 8.407000 28.207001 80.761002 # HT TIP3
342 114 1 0.417000 7.716000 27.068001 80.013000 # HT TIP3
343 115 2 -0.834000 22.371000 18.885000 81.875000 # OT TIP3
344 115 1 0.417000 21.731001 18.190001 82.200996 # HT TIP3
345 115 1 0.417000 23.157000 18.771000 82.378998 # HT TIP3
346 116 2 -0.834000 22.052000 15.490000 80.292000 # OT TIP3
347 116 1 0.417000 21.664000 15.025000 81.009003 # HT TIP3
348 116 1 0.417000 22.791000 16.006001 80.747002 # HT TIP3
349 117 2 -0.834000 4.320000 2.439000 79.693001 # OT TIP3
350 117 1 0.417000 4.018000 2.263000 78.794998 # HT TIP3
351 117 1 0.417000 5.218000 2.737000 79.532997 # HT TIP3
352 118 2 -0.834000 17.096001 9.405000 86.627998 # OT TIP3
353 118 1 0.417000 17.084999 10.390000 86.714996 # HT TIP3
354 118 1 0.417000 17.077000 9.348000 85.621002 # HT TIP3
355 119 2 -0.834000 9.378000 23.836000 90.073997 # OT TIP3
356 119 1 0.417000 10.127000 24.084999 89.477997 # HT TIP3
357 119 1 0.417000 8.806000 24.652000 90.112000 # HT TIP3
358 120 2 -0.834000 19.479000 4.089000 77.377998 # OT TIP3
359 120 1 0.417000 18.535999 4.208000 77.573997 # HT TIP3
360 120 1 0.417000 19.601999 3.140000 77.196999 # HT TIP3
361 121 2 -0.834000 16.528999 6.982000 84.518997 # OT TIP3
362 121 1 0.417000 17.398001 6.632000 84.811996 # HT TIP3
363 121 1 0.417000 16.223000 6.333000 83.866997 # HT TIP3
364 122 2 -0.834000 5.539000 3.605000 84.294998 # OT TIP3
365 122 1 0.417000 6.460000 3.702000 84.123001 # HT TIP3
366 122 1 0.417000 5.434000 2.616000 84.362999 # HT TIP3
367 123 2 -0.834000 21.028000 8.080000 85.022003 # OT TIP3
368 123 1 0.417000 21.674999 8.715000 85.082001 # HT TIP3
369 123 1 0.417000 20.385000 8.573000 84.527000 # HT TIP3
370 124 2 -0.834000 23.010000 12.028000 94.446999 # OT TIP3
371 124 1 0.417000 23.719000 12.061000 93.700996 # HT TIP3
372 124 1 0.417000 23.590000 12.140000 95.220001 # HT TIP3
373 125 2 -0.834000 19.350000 7.978000 93.614998 # OT TIP3
374 125 1 0.417000 19.415001 8.291000 92.702003 # HT TIP3
375 125 1 0.417000 18.398001 8.159000 93.783997 # HT TIP3
376 126 2 -0.834000 9.883000 22.580999 81.760002 # OT TIP3
377 126 1 0.417000 9.705000 23.232000 82.445999 # HT TIP3
378 126 1 0.417000 10.357000 23.007999 81.077003 # HT TIP3
379 127 2 -0.834000 20.399000 13.364000 77.980003 # OT TIP3
380 127 1 0.417000 20.715000 12.499000 77.598000 # HT TIP3
381 127 1 0.417000 20.091000 13.059000 78.846001 # HT TIP3
382 128 2 -0.834000 25.165001 7.819000 81.775002 # OT TIP3
383 128 1 0.417000 24.867001 7.610000 80.873001 # HT TIP3
384 128 1 0.417000 24.362000 8.177000 82.250999 # HT TIP3
385 129 2 -0.834000 13.793000 14.364000 88.167999 # OT TIP3
386 129 1 0.417000 13.787000 14.548000 87.223000 # HT TIP3
387 129 1 0.417000 12.995000 14.794000 88.399002 # HT TIP3
388 130 2 -0.834000 7.667000 8.547000 85.646004 # OT TIP3
389 130 1 0.417000 7.103000 7.975000 86.295998 # HT TIP3
390 130 1 0.417000 8.558000 8.292000 86.045998 # HT TIP3
391 131 2 -0.834000 1.182000 24.403000 97.361000 # OT TIP3
392 131 1 0.417000 1.301000 24.584999 98.346001 # HT TIP3
393 131 1 0.417000 2.001000 23.867001 97.220001 # HT TIP3
394 132 2 -0.834000 11.129000 18.485001 82.550003 # OT TIP3
395 132 1 0.417000 10.231000 18.466999 82.919998 # HT TIP3
396 132 1 0.417000 11.108000 17.702000 81.985001 # HT TIP3
397 133 2 -0.834000 23.412001 8.606000 88.665001 # OT TIP3
398 133 1 0.417000 22.851999 8.980000 89.388000 # HT TIP3
399 133 1 0.417000 22.958000 7.769000 88.492996 # HT TIP3
400 134 2 -0.834000 5.654000 6.717000 81.023003 # OT TIP3
401 134 1 0.417000 6.059000 6.126000 80.394997 # HT TIP3
402 134 1 0.417000 6.409000 6.785000 81.634003 # HT TIP3
403 135 2 -0.834000 13.336000 15.905000 85.349998 # OT TIP3
404 135 1 0.417000 12.849000 16.587999 84.883003 # HT TIP3
405 135 1 0.417000 12.568000 15.375000 85.769997 # HT TIP3
406 136 2 -0.834000 6.488000 15.255000 89.211998 # OT TIP3
407 136 1 0.417000 7.279000 15.126000 89.709000 # HT TIP3
408 136 1 0.417000 5.864000 14.991000 89.877998 # HT TIP3
409 137 2 -0.834000 4.686000 9.353000 79.401001 # OT TIP3
410 137 1 0.417000 5.494000 8.930000 79.084000 # HT TIP3
411 137 1 0.417000 4.041000 8.727000 79.196999 # HT TIP3
412 138 2 -0.834000 16.004999 15.526000 95.133003 # OT TIP3
413 138 1 0.417000 16.742001 14.941000 95.237999 # HT TIP3
414 138 1 0.417000 15.746000 15.453000 94.188004 # HT TIP3
415 139 2 -0.834000 16.427000 14.899000 89.417999 # OT TIP3
416 139 1 0.417000 16.598000 15.703000 89.915001 # HT TIP3
417 139 1 0.417000 15.569000 15.032000 88.994003 # HT TIP3
418 140 2 -0.834000 16.117001 17.341999 91.320000 # OT TIP3
419 140 1 0.417000 15.190000 17.658001 91.235001 # HT TIP3
420 140 1 0.417000 16.725000 18.080000 90.949997 # HT TIP3
421 141 2 -0.834000 14.263000 24.513000 83.325996 # OT TIP3
422 141 1 0.417000 15.083000 24.900000 83.689003 # HT TIP3
423 141 1 0.417000 14.669000 23.802999 82.738998 # HT TIP3
424 142 2 -0.834000 5.289000 26.674999 77.474998 # OT TIP3
425 142 1 0.417000 6.014000 26.297001 77.908997 # HT TIP3
426 142 1 0.417000 4.628000 26.027000 77.513000 # HT TIP3
427 143 2 -0.834000 11.030000 12.441000 79.433998 # OT TIP3
428 143 1 0.417000 10.274000 11.827000 79.421997 # HT TIP3
429 143 1 0.417000 11.533000 12.362000 78.661003 # HT TIP3
430 144 2 -0.834000 11.550000 10.544000 87.315002 # OT TIP3
431 144 1 0.417000 11.055000 11.343000 87.396004 # HT TIP3
432 144 1 0.417000 12.460000 10.846000 87.336998 # HT TIP3
433 145 2 -0.834000 18.195999 19.038000 89.777000 # OT TIP3
434 145 1 0.417000 18.492001 18.084999 89.750000 # HT TIP3
435 145 1 0.417000 17.868000 19.082001 88.855003 # HT TIP3
436 146 2 -0.834000 3.005000 18.796000 97.122002 # OT TIP3
437 146 1 0.417000 3.773000 18.325001 97.598000 # HT TIP3
438 146 1 0.417000 3.173000 19.757999 97.264999 # HT TIP3
439 147 2 -0.834000 14.553000 16.240000 97.434998 # OT TIP3
440 147 1 0.417000 15.103000 15.959000 96.725998 # HT TIP3
441 147 1 0.417000 14.422000 15.470000 97.978996 # HT TIP3
442 148 2 -0.834000 12.456000 3.350000 95.584999 # OT TIP3
443 148 1 0.417000 11.731000 3.931000 95.730003 # HT TIP3
444 148 1 0.417000 12.546000 2.862000 96.401001 # HT TIP3
445 149 2 -0.834000 14.068000 3.914000 86.149002 # OT TIP3
446 149 1 0.417000 13.803000 3.473000 85.294998 # HT TIP3
447 149 1 0.417000 15.010000 3.849000 86.112000 # HT TIP3
448 150 2 -0.834000 6.450000 10.067000 81.336998 # OT TIP3
449 150 1 0.417000 5.722000 9.840000 80.710999 # HT TIP3
450 150 1 0.417000 5.939000 9.770000 82.116997 # HT TIP3
451 151 2 -0.834000 10.813000 26.618999 90.730003 # OT TIP3
452 151 1 0.417000 11.656000 26.875999 91.164001 # HT TIP3
453 151 1 0.417000 10.196000 27.145000 91.275002 # HT TIP3
454 152 2 -0.834000 4.297000 19.771000 93.303001 # OT TIP3
455 152 1 0.417000 4.913000 20.271999 93.824997 # HT TIP3
456 152 1 0.417000 4.616000 19.934999 92.407997 # HT TIP3
457 153 2 -0.834000 7.597000 16.954000 97.462997 # OT TIP3
458 153 1 0.417000 8.157000 16.160000 97.199997 # HT TIP3
459 153 1 0.417000 8.205000 17.451000 98.021004 # HT TIP3
460 154 2 -0.834000 2.443000 4.980000 94.626999 # OT TIP3
461 154 1 0.417000 2.536000 4.050000 94.247002 # HT TIP3
462 154 1 0.417000 1.589000 5.282000 94.255997 # HT TIP3
463 155 2 -0.834000 21.254999 26.983000 79.128998 # OT TIP3
464 155 1 0.417000 21.472000 27.410999 79.954002 # HT TIP3
465 155 1 0.417000 20.868000 26.098000 79.325996 # HT TIP3
466 156 2 -0.834000 4.248000 23.875999 79.700996 # OT TIP3
467 156 1 0.417000 3.662000 23.334000 80.248001 # HT TIP3
468 156 1 0.417000 5.106000 23.410000 79.780998 # HT TIP3
469 157 2 -0.834000 9.943000 20.607000 85.392998 # OT TIP3
470 157 1 0.417000 10.890000 20.666000 85.174004 # HT TIP3
471 157 1 0.417000 9.551000 20.202000 84.585999 # HT TIP3
472 158 2 -0.834000 8.534000 24.313000 98.010002 # OT TIP3
473 158 1 0.417000 8.309000 23.777000 98.737999 # HT TIP3
474 158 1 0.417000 7.697000 24.403000 97.531998 # HT TIP3
475 159 2 -0.834000 14.340000 14.560000 92.476997 # OT TIP3
476 159 1 0.417000 14.400000 14.568000 91.542000 # HT TIP3
477 159 1 0.417000 13.852000 15.406000 92.633003 # HT TIP3
478 160 2 -0.834000 9.344000 8.845000 96.429001 # OT TIP3
479 160 1 0.417000 9.479000 9.292000 97.236000 # HT TIP3
480 160 1 0.417000 10.102000 9.059000 95.900002 # HT TIP3
481 161 2 -0.834000 22.892000 10.490000 78.954002 # OT TIP3
482 161 1 0.417000 23.662001 9.965000 79.007004 # HT TIP3
483 161 1 0.417000 22.278999 9.910000 78.557999 # HT TIP3
484 162 2 -0.834000 7.901000 22.556999 85.325996 # OT TIP3
485 162 1 0.417000 8.410000 21.743999 85.384003 # HT TIP3
486 162 1 0.417000 8.474000 23.077000 84.759003 # HT TIP3
487 163 2 -0.834000 17.261000 22.789000 98.152000 # OT TIP3
488 163 1 0.417000 17.684000 21.872999 97.877998 # HT TIP3
489 163 1 0.417000 17.788000 23.010000 98.873001 # HT TIP3
490 164 2 -0.834000 6.596000 24.879999 94.762001 # OT TIP3
491 164 1 0.417000 6.727000 25.761999 95.184998 # HT TIP3
492 164 1 0.417000 7.504000 24.604000 94.431000 # HT TIP3
493 165 2 -0.834000 15.403000 8.815000 91.211998 # OT TIP3
494 165 1 0.417000 14.532000 9.206000 90.911003 # HT TIP3
495 165 1 0.417000 15.885000 8.681000 90.373001 # HT TIP3
496 166 2 -0.834000 7.857000 12.138000 82.829002 # OT TIP3
497 166 1 0.417000 7.107000 12.750000 82.800003 # HT TIP3
498 166 1 0.417000 7.480000 11.387000 82.352997 # HT TIP3
499 167 2 -0.834000 12.757000 27.768999 96.348000 # OT TIP3
500 167 1 0.417000 12.464000 28.496000 96.874001 # HT TIP3
501 167 1 0.417000 11.986000 27.221001 96.287003 # HT TIP3
502 168 2 -0.834000 11.309000 22.500000 87.481003 # OT TIP3
503 168 1 0.417000 12.014000 21.927999 87.184998 # HT TIP3
504 168 1 0.417000 10.595000 21.961000 87.182999 # HT TIP3
505 169 2 -0.834000 17.688999 27.229000 84.289001 # OT TIP3
506 169 1 0.417000 18.191999 26.791000 85.000000 # HT TIP3
507 169 1 0.417000 17.002001 27.674000 84.851997 # HT TIP3
508 170 2 -0.834000 14.235000 23.943001 91.633003 # OT TIP3
509 170 1 0.417000 13.613000 23.525000 92.194000 # HT TIP3
510 170 1 0.417000 15.027000 23.981001 92.180000 # HT TIP3
511 171 2 -0.834000 7.818000 21.066000 96.150002 # OT TIP3