LAMMPS data file. CGCMM style. atom_style full generated by VMD/TopoTools v1.1 on Sat Oct 06 23:19:13 +0800 2012
 4356 atoms
 2904 bonds
 1452 angles
 0 dihedrals
 0 impropers
 2 atom types
 1 bond types
 1 angle types
 0 dihedral types
 0 improper types
 0.483500 28.983500  xlo xhi
 0.547501 29.047501  ylo yhi
 0.637000 59.637000  zlo zhi

# Pair Coeffs
#
# 1  HT
# 2  OT

# Bond Coeffs
#
# 1  

# Angle Coeffs
#
# 1  unknown

 Masses

 1 1.007940 # HT
 2 15.999400 # OT

 Atoms

1 1 2 -0.834000 4.168000 10.582000 16.403999 # OT TIP3
2 1 1 0.417000 3.724000 10.951000 15.601000 # HT TIP3
3 1 1 0.417000 3.592000 10.879000 17.127001 # HT TIP3
4 2 2 -0.834000 6.533000 5.376000 21.391001 # OT TIP3
5 2 1 0.417000 6.578000 5.724000 22.298000 # HT TIP3
6 2 1 0.417000 7.092000 4.588000 21.461000 # HT TIP3
7 3 2 -0.834000 5.069000 4.460000 30.386999 # OT TIP3
8 3 1 0.417000 4.459000 3.660000 30.480000 # HT TIP3
9 3 1 0.417000 4.495000 5.155000 29.922001 # HT TIP3
10 4 2 -0.834000 1.475000 14.507000 39.067001 # OT TIP3
11 4 1 0.417000 1.637000 13.763000 38.466000 # HT TIP3
12 4 1 0.417000 1.119000 14.039000 39.860001 # HT TIP3
13 5 2 -0.834000 6.887000 0.874000 51.355999 # OT TIP3
14 5 1 0.417000 6.806000 0.600000 50.424000 # HT TIP3
15 5 1 0.417000 7.656000 1.526000 51.273998 # HT TIP3
16 6 2 -0.834000 1.424000 4.749000 50.730999 # OT TIP3
17 6 1 0.417000 1.853000 4.214000 51.491001 # HT TIP3
18 6 1 0.417000 1.160000 5.586000 51.216999 # HT TIP3
19 7 2 -0.834000 7.036000 3.542000 56.893002 # OT TIP3
20 7 1 0.417000 7.423000 3.044000 56.105999 # HT TIP3
21 7 1 0.417000 7.715000 4.266000 57.084999 # HT TIP3
22 8 2 -0.834000 5.686000 17.195999 12.572000 # OT TIP3
23 8 1 0.417000 6.583000 17.479000 12.316000 # HT TIP3
24 8 1 0.417000 5.837000 16.332001 12.990000 # HT TIP3
25 9 2 -0.834000 14.937000 6.294000 31.056000 # OT TIP3
26 9 1 0.417000 14.024000 5.819000 31.032000 # HT TIP3
27 9 1 0.417000 15.484000 5.613000 31.473000 # HT TIP3
28 10 2 -0.834000 8.824000 14.311000 21.832001 # OT TIP3
29 10 1 0.417000 9.133000 13.848000 22.612000 # HT TIP3
30 10 1 0.417000 9.006000 13.616000 21.145000 # HT TIP3
31 11 2 -0.834000 11.962000 26.525999 31.872999 # OT TIP3
32 11 1 0.417000 11.886000 27.195000 32.576000 # HT TIP3
33 11 1 0.417000 11.119000 26.580000 31.436001 # HT TIP3
34 12 2 -0.834000 8.937000 2.669000 52.151001 # OT TIP3
35 12 1 0.417000 9.539000 2.900000 51.393002 # HT TIP3
36 12 1 0.417000 8.771000 3.412000 52.644001 # HT TIP3
37 13 2 -0.834000 4.286000 16.818001 1.810000 # OT TIP3
38 13 1 0.417000 4.281000 15.888000 1.696000 # HT TIP3
39 13 1 0.417000 5.028000 17.080000 1.281000 # HT TIP3
40 14 2 -0.834000 6.705000 7.491000 18.941999 # OT TIP3
41 14 1 0.417000 7.282000 7.847000 19.652000 # HT TIP3
42 14 1 0.417000 5.809000 7.562000 19.299999 # HT TIP3
43 15 2 -0.834000 16.625999 15.201000 5.077000 # OT TIP3
44 15 1 0.417000 16.570000 14.772000 4.226000 # HT TIP3
45 15 1 0.417000 17.305000 15.954000 4.945000 # HT TIP3
46 16 2 -0.834000 3.250000 9.344000 10.129000 # OT TIP3
47 16 1 0.417000 2.610000 8.790000 10.498000 # HT TIP3
48 16 1 0.417000 2.664000 9.745000 9.462000 # HT TIP3
49 17 2 -0.834000 4.435000 16.695000 22.608999 # OT TIP3
50 17 1 0.417000 5.370000 16.534000 22.485001 # HT TIP3
51 17 1 0.417000 4.155000 15.867000 23.080999 # HT TIP3
52 18 2 -0.834000 3.491000 11.662000 28.360001 # OT TIP3
53 18 1 0.417000 4.094000 11.468000 27.629000 # HT TIP3
54 18 1 0.417000 2.914000 12.275000 27.930000 # HT TIP3
55 19 2 -0.834000 4.740000 7.537000 27.580999 # OT TIP3
56 19 1 0.417000 5.156000 8.331000 27.158001 # HT TIP3
57 19 1 0.417000 4.286000 7.928000 28.312000 # HT TIP3
58 20 2 -0.834000 7.672000 7.499000 39.081001 # OT TIP3
59 20 1 0.417000 7.540000 8.050000 39.827000 # HT TIP3
60 20 1 0.417000 6.744000 7.256000 38.763000 # HT TIP3
61 21 2 -0.834000 11.174000 9.409000 5.486000 # OT TIP3
62 21 1 0.417000 11.498000 9.371000 6.432000 # HT TIP3
63 21 1 0.417000 10.248000 9.770000 5.575000 # HT TIP3
64 22 2 -0.834000 0.502000 6.167000 15.091000 # OT TIP3
65 22 1 0.417000 0.983000 6.490000 14.330000 # HT TIP3
66 22 1 0.417000 1.108000 6.281000 15.847000 # HT TIP3
67 23 2 -0.834000 10.382000 9.656000 15.416000 # OT TIP3
68 23 1 0.417000 10.074000 10.253000 16.097000 # HT TIP3
69 23 1 0.417000 10.521000 8.764000 15.789000 # HT TIP3
70 24 2 -0.834000 8.464000 6.607000 29.952999 # OT TIP3
71 24 1 0.417000 8.742000 5.706000 30.099001 # HT TIP3
72 24 1 0.417000 8.922000 7.045000 30.737000 # HT TIP3
73 25 2 -0.834000 24.677000 14.771000 38.625999 # OT TIP3
74 25 1 0.417000 24.034000 14.442000 37.959000 # HT TIP3
75 25 1 0.417000 25.562000 14.582000 38.181999 # HT TIP3
76 26 2 -0.834000 6.816000 5.788000 27.995001 # OT TIP3
77 26 1 0.417000 7.140000 6.131000 28.863001 # HT TIP3
78 26 1 0.417000 6.063000 6.352000 27.780001 # HT TIP3
79 27 2 -0.834000 2.878000 16.754999 52.700001 # OT TIP3
80 27 1 0.417000 2.803000 15.773000 52.764999 # HT TIP3
81 27 1 0.417000 3.202000 16.973000 53.643002 # HT TIP3
82 28 2 -0.834000 2.161000 7.181000 2.443000 # OT TIP3
83 28 1 0.417000 2.443000 6.239000 2.481000 # HT TIP3
84 28 1 0.417000 1.278000 7.099000 1.983000 # HT TIP3
85 29 2 -0.834000 5.321000 21.103001 11.739000 # OT TIP3
86 29 1 0.417000 5.966000 21.282000 12.463000 # HT TIP3
87 29 1 0.417000 5.884000 21.414000 10.956000 # HT TIP3
88 30 2 -0.834000 15.522000 21.355000 13.331000 # OT TIP3
89 30 1 0.417000 14.722000 21.309000 13.792000 # HT TIP3
90 30 1 0.417000 15.173000 21.556999 12.418000 # HT TIP3
91 31 2 -0.834000 1.839000 4.282000 23.313999 # OT TIP3
92 31 1 0.417000 1.339000 3.925000 22.587000 # HT TIP3
93 31 1 0.417000 2.275000 3.577000 23.638000 # HT TIP3
94 32 2 -0.834000 0.985000 15.637000 22.976000 # OT TIP3
95 32 1 0.417000 1.144000 15.925000 23.849001 # HT TIP3
96 32 1 0.417000 0.812000 16.461000 22.475000 # HT TIP3
97 33 2 -0.834000 13.643000 14.295000 33.979000 # OT TIP3
98 33 1 0.417000 13.431000 14.053000 34.855999 # HT TIP3
99 33 1 0.417000 14.023000 15.162000 34.019001 # HT TIP3
100 34 2 -0.834000 12.921000 21.094999 31.843000 # OT TIP3
101 34 1 0.417000 12.830000 21.121000 32.803001 # HT TIP3
102 34 1 0.417000 12.781000 22.025999 31.563000 # HT TIP3
103 35 2 -0.834000 10.455000 18.132999 41.707001 # OT TIP3
104 35 1 0.417000 9.541000 18.361000 41.867001 # HT TIP3
105 35 1 0.417000 10.705000 17.462999 42.448002 # HT TIP3
106 36 2 -0.834000 7.742000 27.320000 56.785000 # OT TIP3
107 36 1 0.417000 7.509000 26.552000 56.244999 # HT TIP3
108 36 1 0.417000 7.323000 28.049000 56.222000 # HT TIP3
109 37 2 -0.834000 6.108000 24.417999 13.459000 # OT TIP3
110 37 1 0.417000 5.340000 24.122000 13.045000 # HT TIP3
111 37 1 0.417000 6.537000 24.836000 12.708000 # HT TIP3
112 38 2 -0.834000 10.926000 8.104000 2.904000 # OT TIP3
113 38 1 0.417000 11.261000 8.901000 2.494000 # HT TIP3
114 38 1 0.417000 10.748000 8.389000 3.808000 # HT TIP3
115 39 2 -0.834000 9.069000 26.184000 12.711000 # OT TIP3
116 39 1 0.417000 9.623000 26.042000 13.515000 # HT TIP3
117 39 1 0.417000 9.305000 27.094999 12.427000 # HT TIP3
118 40 2 -0.834000 4.769000 23.252001 16.764999 # OT TIP3
119 40 1 0.417000 4.649000 24.180000 16.388000 # HT TIP3
120 40 1 0.417000 5.561000 23.296000 17.275999 # HT TIP3
121 41 2 -0.834000 4.099000 14.189000 24.083000 # OT TIP3
122 41 1 0.417000 3.930000 13.376000 24.562000 # HT TIP3
123 41 1 0.417000 5.061000 14.269000 24.160999 # HT TIP3
124 42 2 -0.834000 20.452000 2.461000 26.664000 # OT TIP3
125 42 1 0.417000 20.914000 1.579000 26.579000 # HT TIP3
126 42 1 0.417000 21.167000 3.153000 26.513000 # HT TIP3
127 43 2 -0.834000 4.578000 21.304001 50.765999 # OT TIP3
128 43 1 0.417000 5.002000 21.608999 51.561001 # HT TIP3
129 43 1 0.417000 3.893000 20.589001 51.098000 # HT TIP3
130 44 2 -0.834000 24.017000 11.539000 43.284000 # OT TIP3
131 44 1 0.417000 23.187000 11.072000 43.394001 # HT TIP3
132 44 1 0.417000 24.510000 11.006000 43.861000 # HT TIP3
133 45 2 -0.834000 14.513000 12.175000 59.138000 # OT TIP3
134 45 1 0.417000 15.250000 11.544000 59.275002 # HT TIP3
135 45 1 0.417000 13.753000 11.557000 59.195000 # HT TIP3
136 46 2 -0.834000 23.072001 6.742000 3.978000 # OT TIP3
137 46 1 0.417000 22.205000 6.345000 4.330000 # HT TIP3
138 46 1 0.417000 23.451000 6.159000 3.358000 # HT TIP3
139 47 2 -0.834000 11.426000 5.865000 1.518000 # OT TIP3
140 47 1 0.417000 11.638000 5.269000 2.254000 # HT TIP3
141 47 1 0.417000 11.157000 6.712000 1.993000 # HT TIP3
142 48 2 -0.834000 9.147000 4.814000 19.778000 # OT TIP3
143 48 1 0.417000 8.464000 4.111000 19.826000 # HT TIP3
144 48 1 0.417000 8.543000 5.564000 19.653000 # HT TIP3
145 49 2 -0.834000 8.881000 17.819000 23.775000 # OT TIP3
146 49 1 0.417000 8.016000 17.840000 24.195000 # HT TIP3
147 49 1 0.417000 8.931000 18.763000 23.509001 # HT TIP3
148 50 2 -0.834000 4.842000 11.888000 25.771000 # OT TIP3
149 50 1 0.417000 5.342000 11.197000 26.177999 # HT TIP3
150 50 1 0.417000 5.403000 12.648000 26.077999 # HT TIP3
151 51 2 -0.834000 2.170000 16.174999 29.666000 # OT TIP3
152 51 1 0.417000 2.620000 16.450001 30.474001 # HT TIP3
153 51 1 0.417000 1.263000 16.017000 29.968000 # HT TIP3
154 52 2 -0.834000 16.969999 28.589001 2.681000 # OT TIP3
155 52 1 0.417000 17.354000 27.730000 2.999000 # HT TIP3
156 52 1 0.417000 16.033001 28.356001 2.588000 # HT TIP3
157 53 2 -0.834000 6.521000 7.984000 57.609001 # OT TIP3
158 53 1 0.417000 6.165000 8.462000 58.377998 # HT TIP3
159 53 1 0.417000 6.657000 8.608000 56.970001 # HT TIP3
160 54 2 -0.834000 1.302000 25.584000 6.023000 # OT TIP3
161 54 1 0.417000 1.079000 26.565001 6.005000 # HT TIP3
162 54 1 0.417000 2.295000 25.663000 5.945000 # HT TIP3
163 55 2 -0.834000 4.799000 18.274000 7.669000 # OT TIP3
164 55 1 0.417000 3.803000 18.302999 7.822000 # HT TIP3
165 55 1 0.417000 5.033000 19.254999 7.424000 # HT TIP3
166 56 2 -0.834000 9.392000 13.477000 5.821000 # OT TIP3
167 56 1 0.417000 8.619000 12.978000 5.943000 # HT TIP3
168 56 1 0.417000 9.842000 13.057000 5.036000 # HT TIP3
169 57 2 -0.834000 3.208000 21.469000 25.004000 # OT TIP3
170 57 1 0.417000 3.089000 21.445000 24.056000 # HT TIP3
171 57 1 0.417000 3.623000 22.334999 25.049000 # HT TIP3
172 58 2 -0.834000 2.928000 13.231000 30.987000 # OT TIP3
173 58 1 0.417000 3.219000 12.573000 30.330000 # HT TIP3
174 58 1 0.417000 3.082000 14.042000 30.507999 # HT TIP3
175 59 2 -0.834000 14.273000 18.096001 47.613998 # OT TIP3
176 59 1 0.417000 13.329000 18.224001 47.723999 # HT TIP3
177 59 1 0.417000 14.543000 17.648001 48.474998 # HT TIP3
178 60 2 -0.834000 3.993000 8.508000 54.307999 # OT TIP3
179 60 1 0.417000 4.939000 8.843000 54.181000 # HT TIP3
180 60 1 0.417000 3.442000 9.241000 53.959000 # HT TIP3
181 61 2 -0.834000 2.674000 18.968000 2.712000 # OT TIP3
182 61 1 0.417000 3.132000 18.128000 2.703000 # HT TIP3
183 61 1 0.417000 3.431000 19.620001 2.781000 # HT TIP3
184 62 2 -0.834000 5.548000 9.546000 37.077999 # OT TIP3
185 62 1 0.417000 5.564000 10.389000 37.558998 # HT TIP3
186 62 1 0.417000 5.122000 9.724000 36.243000 # HT TIP3
187 63 2 -0.834000 12.890000 27.806999 37.860001 # OT TIP3
188 63 1 0.417000 12.345000 28.613001 37.792999 # HT TIP3
189 63 1 0.417000 12.545000 27.420000 38.674999 # HT TIP3
190 64 2 -0.834000 19.370001 21.959999 29.471001 # OT TIP3
191 64 1 0.417000 18.403000 21.788000 29.221001 # HT TIP3
192 64 1 0.417000 19.573999 21.191000 30.091000 # HT TIP3
193 65 2 -0.834000 2.629000 21.940001 46.119999 # OT TIP3
194 65 1 0.417000 3.029000 22.783001 46.410999 # HT TIP3
195 65 1 0.417000 1.890000 21.909000 46.734001 # HT TIP3
196 66 2 -0.834000 12.765000 22.385000 52.386002 # OT TIP3
197 66 1 0.417000 13.153000 21.627001 51.868999 # HT TIP3
198 66 1 0.417000 13.464000 23.047001 52.365002 # HT TIP3
199 67 2 -0.834000 14.112000 18.180000 19.122000 # OT TIP3
200 67 1 0.417000 14.244000 17.914000 20.007999 # HT TIP3
201 67 1 0.417000 15.026000 18.330999 18.847000 # HT TIP3
202 68 2 -0.834000 1.787000 24.632000 24.237000 # OT TIP3
203 68 1 0.417000 1.735000 24.424000 25.231001 # HT TIP3
204 68 1 0.417000 2.588000 25.209000 24.139000 # HT TIP3
205 69 2 -0.834000 1.937000 24.790001 54.955002 # OT TIP3
206 69 1 0.417000 1.176000 25.166000 54.428001 # HT TIP3
207 69 1 0.417000 2.547000 24.615999 54.292999 # HT TIP3
208 70 2 -0.834000 6.865000 3.174000 28.559000 # OT TIP3
209 70 1 0.417000 6.299000 3.937000 28.349001 # HT TIP3
210 70 1 0.417000 7.675000 3.555000 28.903000 # HT TIP3
211 71 2 -0.834000 5.198000 5.569000 57.846001 # OT TIP3
212 71 1 0.417000 5.854000 4.828000 57.688000 # HT TIP3
213 71 1 0.417000 5.747000 6.334000 58.049999 # HT TIP3
214 72 2 -0.834000 9.839000 7.238000 32.401001 # OT TIP3
215 72 1 0.417000 9.404000 7.736000 33.133999 # HT TIP3
216 72 1 0.417000 9.904000 6.338000 32.722000 # HT TIP3
217 73 2 -0.834000 4.296000 12.055000 57.862000 # OT TIP3
218 73 1 0.417000 4.325000 12.873000 57.368999 # HT TIP3
219 73 1 0.417000 3.946000 11.372000 57.285999 # HT TIP3
220 74 2 -0.834000 15.914000 7.069000 3.001000 # OT TIP3
221 74 1 0.417000 16.724001 7.358000 2.628000 # HT TIP3
222 74 1 0.417000 15.308000 7.200000 2.171000 # HT TIP3
223 75 2 -0.834000 8.071000 4.298000 34.595001 # OT TIP3
224 75 1 0.417000 7.466000 4.904000 33.993999 # HT TIP3
225 75 1 0.417000 7.946000 4.595000 35.528000 # HT TIP3
226 76 2 -0.834000 12.296000 26.622000 50.787998 # OT TIP3
227 76 1 0.417000 12.363000 26.791000 49.862999 # HT TIP3
228 76 1 0.417000 11.519000 26.007000 50.834000 # HT TIP3
229 77 2 -0.834000 10.435000 13.376000 10.691000 # OT TIP3
230 77 1 0.417000 10.209000 12.598000 10.134000 # HT TIP3
231 77 1 0.417000 9.972000 13.266000 11.518000 # HT TIP3
232 78 2 -0.834000 7.560000 2.574000 20.330000 # OT TIP3
233 78 1 0.417000 8.150000 2.119000 21.028000 # HT TIP3
234 78 1 0.417000 6.648000 2.296000 20.535000 # HT TIP3
235 79 2 -0.834000 11.395000 19.825001 39.563999 # OT TIP3
236 79 1 0.417000 10.867000 19.268000 40.168999 # HT TIP3
237 79 1 0.417000 12.286000 19.458000 39.729000 # HT TIP3
238 80 2 -0.834000 10.457000 15.280000 49.233002 # OT TIP3
239 80 1 0.417000 10.558000 14.675000 48.472000 # HT TIP3
240 80 1 0.417000 9.607000 15.696000 49.018002 # HT TIP3
241 81 2 -0.834000 2.424000 3.477000 53.063000 # OT TIP3
242 81 1 0.417000 2.463000 3.998000 53.879002 # HT TIP3
243 81 1 0.417000 2.033000 2.626000 53.361000 # HT TIP3
244 82 2 -0.834000 14.391000 2.419000 3.492000 # OT TIP3
245 82 1 0.417000 14.698000 3.181000 3.922000 # HT TIP3
246 82 1 0.417000 13.712000 2.077000 4.078000 # HT TIP3
247 83 2 -0.834000 9.323000 11.081000 9.327000 # OT TIP3
248 83 1 0.417000 8.683000 11.253000 8.648000 # HT TIP3
249 83 1 0.417000 8.889000 10.561000 10.034000 # HT TIP3
250 84 2 -0.834000 9.578000 12.467000 13.234000 # OT TIP3
251 84 1 0.417000 8.728000 12.061000 13.493000 # HT TIP3
252 84 1 0.417000 10.012000 12.694000 14.060000 # HT TIP3
253 85 2 -0.834000 8.869000 17.658001 48.936001 # OT TIP3
254 85 1 0.417000 8.483000 17.521000 48.075001 # HT TIP3
255 85 1 0.417000 8.264000 18.388000 49.285000 # HT TIP3
256 86 2 -0.834000 10.782000 1.140000 2.553000 # OT TIP3
257 86 1 0.417000 10.867000 1.459000 3.516000 # HT TIP3
258 86 1 0.417000 10.243000 1.823000 2.167000 # HT TIP3
259 87 2 -0.834000 5.118000 8.625000 8.277000 # OT TIP3
260 87 1 0.417000 5.905000 8.419000 8.814000 # HT TIP3
261 87 1 0.417000 4.502000 8.958000 8.922000 # HT TIP3
262 88 2 -0.834000 3.903000 5.187000 10.315000 # OT TIP3
263 88 1 0.417000 3.609000 5.772000 9.597000 # HT TIP3
264 88 1 0.417000 4.317000 4.473000 9.827000 # HT TIP3
265 89 2 -0.834000 3.776000 7.965000 19.825001 # OT TIP3
266 89 1 0.417000 3.272000 7.491000 20.464001 # HT TIP3
267 89 1 0.417000 4.104000 8.788000 20.253000 # HT TIP3
268 90 2 -0.834000 3.391000 5.544000 33.112999 # OT TIP3
269 90 1 0.417000 2.760000 5.020000 33.650002 # HT TIP3
270 90 1 0.417000 2.803000 6.010000 32.520000 # HT TIP3
271 91 2 -0.834000 2.340000 8.765000 29.162001 # OT TIP3
272 91 1 0.417000 2.180000 8.544000 28.247000 # HT TIP3
273 91 1 0.417000 2.334000 9.711000 29.233000 # HT TIP3
274 92 2 -0.834000 10.200000 13.593000 46.944000 # OT TIP3
275 92 1 0.417000 11.012000 13.655000 46.512001 # HT TIP3
276 92 1 0.417000 10.281000 12.693000 47.255001 # HT TIP3
277 93 2 -0.834000 1.237000 18.402000 37.590000 # OT TIP3
278 93 1 0.417000 0.959000 19.292000 37.852001 # HT TIP3
279 93 1 0.417000 1.366000 18.448999 36.646999 # HT TIP3
280 94 2 -0.834000 10.478000 8.375000 25.448000 # OT TIP3
281 94 1 0.417000 10.089000 8.126000 26.344999 # HT TIP3
282 94 1 0.417000 10.936000 9.156000 25.687000 # HT TIP3
283 95 2 -0.834000 20.975000 18.662001 54.236000 # OT TIP3
284 95 1 0.417000 20.941999 19.684000 54.042000 # HT TIP3
285 95 1 0.417000 20.341000 18.257000 53.612999 # HT TIP3
286 96 2 -0.834000 10.427000 4.685000 33.305000 # OT TIP3
287 96 1 0.417000 9.556000 4.435000 33.702000 # HT TIP3
288 96 1 0.417000 10.860000 3.825000 33.165001 # HT TIP3
289 97 2 -0.834000 21.264999 16.718000 48.872002 # OT TIP3
290 97 1 0.417000 21.322001 16.658001 47.889999 # HT TIP3
291 97 1 0.417000 22.094999 16.357000 49.199001 # HT TIP3
292 98 2 -0.834000 1.397000 4.974000 55.219002 # OT TIP3
293 98 1 0.417000 1.822000 5.843000 55.251999 # HT TIP3
294 98 1 0.417000 0.690000 5.076000 55.844002 # HT TIP3
295 99 2 -0.834000 3.619000 10.825000 13.658000 # OT TIP3
296 99 1 0.417000 4.098000 11.400000 13.012000 # HT TIP3
297 99 1 0.417000 3.940000 9.930000 13.462000 # HT TIP3
298 100 2 -0.834000 2.878000 6.306000 16.753000 # OT TIP3
299 100 1 0.417000 2.657000 6.661000 17.599001 # HT TIP3
300 100 1 0.417000 3.801000 6.532000 16.625999 # HT TIP3
301 101 2 -0.834000 6.882000 22.771000 2.819000 # OT TIP3
302 101 1 0.417000 6.050000 22.535000 2.347000 # HT TIP3
303 101 1 0.417000 7.359000 21.972000 2.692000 # HT TIP3
304 102 2 -0.834000 4.517000 4.405000 19.917999 # OT TIP3
305 102 1 0.417000 3.642000 4.542000 19.632000 # HT TIP3
306 102 1 0.417000 5.082000 5.227000 19.795000 # HT TIP3
307 103 2 -0.834000 2.844000 20.972000 22.131001 # OT TIP3
308 103 1 0.417000 3.432000 21.320999 21.445000 # HT TIP3
309 103 1 0.417000 1.967000 21.048000 21.638000 # HT TIP3
310 104 2 -0.834000 21.113001 14.116000 11.566000 # OT TIP3
311 104 1 0.417000 21.239000 14.459000 10.718000 # HT TIP3
312 104 1 0.417000 20.118999 14.316000 11.750000 # HT TIP3
313 105 2 -0.834000 11.992000 6.048000 35.346001 # OT TIP3
314 105 1 0.417000 11.663000 5.704000 34.540001 # HT TIP3
315 105 1 0.417000 11.886000 6.979000 35.359001 # HT TIP3
316 106 2 -0.834000 2.287000 10.018000 25.014999 # OT TIP3
317 106 1 0.417000 2.632000 10.075000 24.146000 # HT TIP3
318 106 1 0.417000 2.360000 10.906000 25.287001 # HT TIP3
319 107 2 -0.834000 4.627000 2.370000 33.261002 # OT TIP3
320 107 1 0.417000 4.330000 2.772000 32.488998 # HT TIP3
321 107 1 0.417000 5.230000 3.062000 33.598000 # HT TIP3
322 108 2 -0.834000 15.026000 11.032000 20.636999 # OT TIP3
323 108 1 0.417000 14.662000 10.233000 21.003000 # HT TIP3
324 108 1 0.417000 14.966000 10.920000 19.694000 # HT TIP3
325 109 2 -0.834000 10.989000 10.242000 53.992001 # OT TIP3
326 109 1 0.417000 10.535000 9.850000 54.719002 # HT TIP3
327 109 1 0.417000 11.247000 9.498000 53.466000 # HT TIP3
328 110 2 -0.834000 11.781000 12.913000 56.952999 # OT TIP3
329 110 1 0.417000 11.862000 12.219000 57.640999 # HT TIP3
330 110 1 0.417000 12.158000 12.494000 56.148998 # HT TIP3
331 111 2 -0.834000 8.465000 5.956000 57.178001 # OT TIP3
332 111 1 0.417000 8.895000 6.111000 57.988998 # HT TIP3
333 111 1 0.417000 7.785000 6.643000 57.176998 # HT TIP3
334 112 2 -0.834000 26.624001 17.094000 17.306999 # OT TIP3
335 112 1 0.417000 27.448000 17.364000 17.743999 # HT TIP3
336 112 1 0.417000 26.636999 17.548000 16.400000 # HT TIP3
337 113 2 -0.834000 9.376000 28.937000 6.079000 # OT TIP3
338 113 1 0.417000 9.727000 28.077000 5.858000 # HT TIP3
339 113 1 0.417000 9.290000 28.898001 7.033000 # HT TIP3
340 114 2 -0.834000 6.073000 15.304000 19.590000 # OT TIP3
341 114 1 0.417000 6.459000 15.839000 20.308001 # HT TIP3
342 114 1 0.417000 6.369000 15.913000 18.830999 # HT TIP3
343 115 2 -0.834000 16.783001 7.854000 23.281000 # OT TIP3
344 115 1 0.417000 16.139999 8.558000 22.948999 # HT TIP3
345 115 1 0.417000 16.473000 7.060000 22.879000 # HT TIP3
346 116 2 -0.834000 23.372000 18.941000 17.288000 # OT TIP3
347 116 1 0.417000 22.701000 18.364000 16.879000 # HT TIP3
348 116 1 0.417000 22.834999 19.481001 17.924999 # HT TIP3
349 117 2 -0.834000 10.605000 1.341000 39.611000 # OT TIP3
350 117 1 0.417000 9.988000 1.950000 39.131001 # HT TIP3
351 117 1 0.417000 11.132000 1.918000 40.205002 # HT TIP3
352 118 2 -0.834000 8.447000 21.111000 54.467999 # OT TIP3
353 118 1 0.417000 8.220000 20.693001 55.273998 # HT TIP3
354 118 1 0.417000 9.044000 21.861000 54.749001 # HT TIP3
355 119 2 -0.834000 1.242000 21.146999 37.924000 # OT TIP3
356 119 1 0.417000 0.663000 21.702000 37.355000 # HT TIP3
357 119 1 0.417000 2.032000 20.910000 37.337002 # HT TIP3
358 120 2 -0.834000 2.507000 13.754000 49.153000 # OT TIP3
359 120 1 0.417000 2.133000 13.633000 48.252998 # HT TIP3
360 120 1 0.417000 2.582000 14.701000 49.154999 # HT TIP3
361 121 2 -0.834000 5.958000 13.597000 5.089000 # OT TIP3
362 121 1 0.417000 6.173000 13.519000 4.112000 # HT TIP3
363 121 1 0.417000 5.399000 14.394000 5.157000 # HT TIP3
364 122 2 -0.834000 9.469000 17.507000 56.217999 # OT TIP3
365 122 1 0.417000 10.142000 16.847000 56.115002 # HT TIP3
366 122 1 0.417000 9.513000 17.669001 57.158001 # HT TIP3
367 123 2 -0.834000 28.349001 10.368000 19.673000 # OT TIP3
368 123 1 0.417000 27.670000 10.220000 20.363001 # HT TIP3
369 123 1 0.417000 27.903000 10.919000 18.989000 # HT TIP3
370 124 2 -0.834000 5.052000 1.870000 20.830000 # OT TIP3
371 124 1 0.417000 4.774000 2.694000 20.452999 # HT TIP3
372 124 1 0.417000 4.735000 1.301000 20.070999 # HT TIP3
373 125 2 -0.834000 5.094000 25.766001 15.700000 # OT TIP3
374 125 1 0.417000 4.138000 26.000000 15.696000 # HT TIP3
375 125 1 0.417000 5.258000 25.396999 14.812000 # HT TIP3
376 126 2 -0.834000 11.466000 0.987000 28.164000 # OT TIP3
377 126 1 0.417000 11.335000 1.923000 27.975000 # HT TIP3
378 126 1 0.417000 11.058000 0.592000 27.382999 # HT TIP3
379 127 2 -0.834000 7.080000 13.492000 30.191000 # OT TIP3
380 127 1 0.417000 6.930000 14.386000 30.472000 # HT TIP3
381 127 1 0.417000 6.929000 12.999000 30.981001 # HT TIP3
382 128 2 -0.834000 5.660000 14.244000 8.454000 # OT TIP3
383 128 1 0.417000 6.548000 13.922000 8.707000 # HT TIP3
384 128 1 0.417000 5.508000 14.993000 9.028000 # HT TIP3
385 129 2 -0.834000 1.988000 8.254000 32.338001 # OT TIP3
386 129 1 0.417000 1.278000 8.823000 32.695000 # HT TIP3
387 129 1 0.417000 2.043000 8.543000 31.421000 # HT TIP3
388 130 2 -0.834000 3.848000 27.587000 44.868999 # OT TIP3
389 130 1 0.417000 4.347000 27.754999 45.724998 # HT TIP3
390 130 1 0.417000 3.313000 26.834999 45.160999 # HT TIP3
391 131 2 -0.834000 10.890000 6.886000 19.327999 # OT TIP3
392 131 1 0.417000 11.188000 6.984000 20.231001 # HT TIP3
393 131 1 0.417000 10.344000 6.089000 19.421000 # HT TIP3
394 132 2 -0.834000 2.178000 22.441999 1.535000 # OT TIP3
395 132 1 0.417000 1.772000 21.780001 2.092000 # HT TIP3
396 132 1 0.417000 1.998000 23.309000 1.993000 # HT TIP3
397 133 2 -0.834000 10.130000 22.047001 3.500000 # OT TIP3
398 133 1 0.417000 10.101000 22.971001 3.143000 # HT TIP3
399 133 1 0.417000 9.787000 21.454000 2.812000 # HT TIP3
400 134 2 -0.834000 2.844000 11.071000 3.124000 # OT TIP3
401 134 1 0.417000 2.622000 11.253000 4.053000 # HT TIP3
402 134 1 0.417000 3.447000 10.291000 3.117000 # HT TIP3
403 135 2 -0.834000 3.082000 28.135000 22.563000 # OT TIP3
404 135 1 0.417000 2.326000 27.834000 23.110001 # HT TIP3
405 135 1 0.417000 2.641000 28.372999 21.726999 # HT TIP3
406 136 2 -0.834000 8.623000 8.390000 34.605000 # OT TIP3
407 136 1 0.417000 8.783000 8.039000 35.539001 # HT TIP3
408 136 1 0.417000 9.229000 9.134000 34.500000 # HT TIP3
409 137 2 -0.834000 13.885000 10.269000 29.952999 # OT TIP3
410 137 1 0.417000 14.356000 10.891000 30.562000 # HT TIP3
411 137 1 0.417000 13.099000 10.013000 30.465000 # HT TIP3
412 138 2 -0.834000 5.654000 10.381000 50.596001 # OT TIP3
413 138 1 0.417000 6.520000 10.553000 50.089001 # HT TIP3
414 138 1 0.417000 5.064000 10.743000 49.910000 # HT TIP3
415 139 2 -0.834000 1.323000 24.167999 3.388000 # OT TIP3
416 139 1 0.417000 2.136000 23.816000 3.840000 # HT TIP3
417 139 1 0.417000 0.753000 24.478001 4.140000 # HT TIP3
418 140 2 -0.834000 13.854000 15.258000 49.146999 # OT TIP3
419 140 1 0.417000 14.820000 14.864000 49.187000 # HT TIP3
420 140 1 0.417000 13.330000 14.710000 49.716999 # HT TIP3
421 141 2 -0.834000 4.111000 20.141001 54.799000 # OT TIP3
422 141 1 0.417000 3.325000 20.667999 54.995998 # HT TIP3
423 141 1 0.417000 4.758000 20.472000 55.431000 # HT TIP3
424 142 2 -0.834000 16.573000 24.219999 49.415001 # OT TIP3
425 142 1 0.417000 17.226999 23.533001 49.645000 # HT TIP3
426 142 1 0.417000 17.037001 24.870001 48.861000 # HT TIP3
427 143 2 -0.834000 13.720000 24.993999 13.592000 # OT TIP3
428 143 1 0.417000 13.391000 25.882999 13.787000 # HT TIP3
429 143 1 0.417000 13.556000 24.417999 14.353000 # HT TIP3
430 144 2 -0.834000 1.495000 28.521000 10.515000 # OT TIP3
431 144 1 0.417000 0.513000 28.481001 10.543000 # HT TIP3
432 144 1 0.417000 1.798000 27.618999 10.763000 # HT TIP3
433 145 2 -0.834000 3.210000 6.685000 8.040000 # OT TIP3
434 145 1 0.417000 2.967000 6.736000 7.061000 # HT TIP3
435 145 1 0.417000 3.910000 7.355000 8.080000 # HT TIP3
436 146 2 -0.834000 7.411000 19.958000 17.834999 # OT TIP3
437 146 1 0.417000 8.017000 20.618000 17.457001 # HT TIP3
438 146 1 0.417000 6.815000 19.636000 17.087999 # HT TIP3
439 147 2 -0.834000 13.836000 24.961000 37.285000 # OT TIP3
440 147 1 0.417000 13.739000 25.664000 37.933998 # HT TIP3
441 147 1 0.417000 14.193000 24.212999 37.743999 # HT TIP3
442 148 2 -0.834000 3.334000 15.543000 34.874001 # OT TIP3
443 148 1 0.417000 2.779000 15.307000 35.623001 # HT TIP3
444 148 1 0.417000 4.107000 15.049000 35.002998 # HT TIP3
445 149 2 -0.834000 23.624001 21.129000 46.124001 # OT TIP3
446 149 1 0.417000 22.610001 21.086000 45.870998 # HT TIP3
447 149 1 0.417000 23.795000 20.163000 46.328999 # HT TIP3
448 150 2 -0.834000 5.679000 21.389999 27.886999 # OT TIP3
449 150 1 0.417000 5.118000 22.106001 28.146000 # HT TIP3
450 150 1 0.417000 5.696000 20.711000 28.607000 # HT TIP3
451 151 2 -0.834000 1.929000 22.910999 51.355999 # OT TIP3
452 151 1 0.417000 2.135000 23.827999 51.105999 # HT TIP3
453 151 1 0.417000 2.859000 22.551001 51.525002 # HT TIP3
454 152 2 -0.834000 16.691999 22.903000 4.282000 # OT TIP3
455 152 1 0.417000 16.863001 23.381001 5.122000 # HT TIP3
456 152 1 0.417000 16.927000 23.565001 3.586000 # HT TIP3
457 153 2 -0.834000 14.040000 22.719999 3.248000 # OT TIP3
458 153 1 0.417000 13.465000 22.975000 3.962000 # HT TIP3
459 153 1 0.417000 14.928000 22.903999 3.574000 # HT TIP3
460 154 2 -0.834000 8.889000 18.665001 31.492001 # OT TIP3
461 154 1 0.417000 8.468000 18.270000 30.709999 # HT TIP3
462 154 1 0.417000 8.917000 17.951000 32.140999 # HT TIP3
463 155 2 -0.834000 10.938000 21.737000 41.508999 # OT TIP3
464 155 1 0.417000 11.346000 21.240000 40.768002 # HT TIP3
465 155 1 0.417000 10.077000 21.980000 41.212002 # HT TIP3
466 156 2 -0.834000 15.826000 27.468000 31.902000 # OT TIP3
467 156 1 0.417000 14.953000 27.236000 31.427999 # HT TIP3
468 156 1 0.417000 15.568000 28.120001 32.533001 # HT TIP3
469 157 2 -0.834000 3.771000 19.474001 43.687000 # OT TIP3
470 157 1 0.417000 3.958000 18.573000 43.487999 # HT TIP3
471 157 1 0.417000 3.820000 19.929001 42.813000 # HT TIP3
472 158 2 -0.834000 8.681000 23.965000 8.137000 # OT TIP3
473 158 1 0.417000 9.507000 24.437000 8.203000 # HT TIP3
474 158 1 0.417000 8.017000 24.617001 7.812000 # HT TIP3
475 159 2 -0.834000 11.429000 15.250000 6.218000 # OT TIP3
476 159 1 0.417000 10.550000 15.041000 5.908000 # HT TIP3
477 159 1 0.417000 11.901000 14.379000 6.217000 # HT TIP3
478 160 2 -0.834000 20.159000 26.052000 17.948999 # OT TIP3
479 160 1 0.417000 20.681999 26.846001 17.999001 # HT TIP3
480 160 1 0.417000 19.233999 26.358000 17.881001 # HT TIP3
481 161 2 -0.834000 2.586000 25.952000 18.694000 # OT TIP3
482 161 1 0.417000 2.674000 26.423000 17.893999 # HT TIP3
483 161 1 0.417000 1.772000 26.368999 19.104000 # HT TIP3
484 162 2 -0.834000 2.183000 26.167000 26.832001 # OT TIP3
485 162 1 0.417000 3.080000 26.407000 26.926001 # HT TIP3
486 162 1 0.417000 1.985000 25.726999 27.625999 # HT TIP3
487 163 2 -0.834000 23.830999 22.118999 18.569000 # OT TIP3
488 163 1 0.417000 23.636999 23.016001 18.955999 # HT TIP3
489 163 1 0.417000 23.163000 21.485001 18.950001 # HT TIP3
490 164 2 -0.834000 15.918000 17.791000 50.069000 # OT TIP3
491 164 1 0.417000 16.584000 17.559000 49.456001 # HT TIP3
492 164 1 0.417000 16.483999 18.322001 50.634998 # HT TIP3
493 165 2 -0.834000 1.160000 22.481001 56.473999 # OT TIP3
494 165 1 0.417000 1.491000 22.611000 57.362999 # HT TIP3
495 165 1 0.417000 1.454000 23.250000 55.991001 # HT TIP3
496 166 2 -0.834000 17.007000 17.670000 21.506001 # OT TIP3
497 166 1 0.417000 17.726000 17.506001 20.795000 # HT TIP3
498 166 1 0.417000 16.530001 16.797001 21.582001 # HT TIP3
499 167 2 -0.834000 4.290000 23.818001 26.566999 # OT TIP3
500 167 1 0.417000 4.611000 24.184000 27.400999 # HT TIP3
501 167 1 0.417000 3.335000 23.695999 26.747999 # HT TIP3
502 168 2 -0.834000 4.735000 24.910000 52.874001 # OT TIP3
503 168 1 0.417000 5.175000 25.636000 53.320000 # HT TIP3
504 168 1 0.417000 4.076000 25.391001 52.266998 # HT TIP3
505 169 2 -0.834000 1.247000 4.969000 11.079000 # OT TIP3
506 169 1 0.417000 0.926000 4.068000 10.839000 # HT TIP3
507 169 1 0.417000 2.005000 5.085000 10.490000 # HT TIP3
508 170 2 -0.834000 16.221001 3.484000 45.534000 # OT TIP3
509 170 1 0.417000 16.417000 3.785000 46.486000 # HT TIP3
510 170 1 0.417000 15.448000 3.970000 45.276001 # HT TIP3
511 171 2 -0.834000 5.856000 5.888000 16.546000 # OT TIP3
512 171 1 0.417000 6.384000 6.564000 16.961000 # HT TIP3
513 171 1 0.417000 6.092000 5.122000 17.037001 # HT TIP3
514 172 2 -0.834000 2.389000 6.085000 30.041000 # OT TIP3