LAMMPS data file. CGCMM style. atom_style full generated by VMD/TopoTools v1.1 on Sat Oct 06 23:18:56 +0800 2012
 3642 atoms
 2428 bonds
 1214 angles
 0 dihedrals
 0 impropers
 2 atom types
 1 bond types
 1 angle types
 0 dihedral types
 0 improper types
 0.420001 29.220000  xlo xhi
 0.547501 29.047501  ylo yhi
 60.627001 109.627001  zlo zhi

# Pair Coeffs
#
# 1  HT
# 2  OT

# Bond Coeffs
#
# 1  

# Angle Coeffs
#
# 1  unknown

 Masses

 1 1.007940 # HT
 2 15.999400 # OT

 Atoms

1 1 2 -0.834000 4.168000 10.582000 76.403999 # OT TIP3
2 1 1 0.417000 3.724000 10.951000 75.600998 # HT TIP3
3 1 1 0.417000 3.592000 10.879000 77.126999 # HT TIP3
4 2 2 -0.834000 6.533000 5.376000 81.390999 # OT TIP3
5 2 1 0.417000 6.578000 5.724000 82.297997 # HT TIP3
6 2 1 0.417000 7.092000 4.588000 81.460999 # HT TIP3
7 3 2 -0.834000 5.069000 4.460000 90.387001 # OT TIP3
8 3 1 0.417000 4.459000 3.660000 90.480003 # HT TIP3
9 3 1 0.417000 4.495000 5.155000 89.921997 # HT TIP3
10 4 2 -0.834000 1.475000 14.507000 99.067001 # OT TIP3
11 4 1 0.417000 1.637000 13.763000 98.466003 # HT TIP3
12 4 1 0.417000 1.119000 14.039000 99.860001 # HT TIP3
13 5 2 -0.834000 5.686000 17.195999 72.571999 # OT TIP3
14 5 1 0.417000 6.583000 17.479000 72.316002 # HT TIP3
15 5 1 0.417000 5.837000 16.332001 72.989998 # HT TIP3
16 6 2 -0.834000 14.937000 6.294000 91.056000 # OT TIP3
17 6 1 0.417000 14.024000 5.819000 91.031998 # HT TIP3
18 6 1 0.417000 15.484000 5.613000 91.473000 # HT TIP3
19 7 2 -0.834000 8.824000 14.311000 81.832001 # OT TIP3
20 7 1 0.417000 9.133000 13.848000 82.612000 # HT TIP3
21 7 1 0.417000 9.006000 13.616000 81.144997 # HT TIP3
22 8 2 -0.834000 11.962000 26.525999 91.873001 # OT TIP3
23 8 1 0.417000 11.886000 27.195000 92.575996 # HT TIP3
24 8 1 0.417000 11.119000 26.580000 91.435997 # HT TIP3
25 9 2 -0.834000 4.286000 16.818001 61.810001 # OT TIP3
26 9 1 0.417000 4.281000 15.888000 61.695999 # HT TIP3
27 9 1 0.417000 5.028000 17.080000 61.280998 # HT TIP3
28 10 2 -0.834000 6.705000 7.491000 78.942001 # OT TIP3
29 10 1 0.417000 7.282000 7.847000 79.652000 # HT TIP3
30 10 1 0.417000 5.809000 7.562000 79.300003 # HT TIP3
31 11 2 -0.834000 16.625999 15.201000 65.077003 # OT TIP3
32 11 1 0.417000 16.570000 14.772000 64.225998 # HT TIP3
33 11 1 0.417000 17.305000 15.954000 64.945000 # HT TIP3
34 12 2 -0.834000 3.250000 9.344000 70.128998 # OT TIP3
35 12 1 0.417000 2.610000 8.790000 70.498001 # HT TIP3
36 12 1 0.417000 2.664000 9.745000 69.461998 # HT TIP3
37 13 2 -0.834000 4.435000 16.695000 82.609001 # OT TIP3
38 13 1 0.417000 5.370000 16.534000 82.485001 # HT TIP3
39 13 1 0.417000 4.155000 15.867000 83.081001 # HT TIP3
40 14 2 -0.834000 3.491000 11.662000 88.360001 # OT TIP3
41 14 1 0.417000 4.094000 11.468000 87.628998 # HT TIP3
42 14 1 0.417000 2.914000 12.275000 87.930000 # HT TIP3
43 15 2 -0.834000 4.740000 7.537000 87.581001 # OT TIP3
44 15 1 0.417000 5.156000 8.331000 87.157997 # HT TIP3
45 15 1 0.417000 4.286000 7.928000 88.311996 # HT TIP3
46 16 2 -0.834000 7.672000 7.499000 99.081001 # OT TIP3
47 16 1 0.417000 7.540000 8.050000 99.827003 # HT TIP3
48 16 1 0.417000 6.744000 7.256000 98.763000 # HT TIP3
49 17 2 -0.834000 11.174000 9.409000 65.486000 # OT TIP3
50 17 1 0.417000 11.498000 9.371000 66.431999 # HT TIP3
51 17 1 0.417000 10.248000 9.770000 65.574997 # HT TIP3
52 18 2 -0.834000 0.502000 6.167000 75.091003 # OT TIP3
53 18 1 0.417000 0.983000 6.490000 74.330002 # HT TIP3
54 18 1 0.417000 1.108000 6.281000 75.847000 # HT TIP3
55 19 2 -0.834000 10.382000 9.656000 75.416000 # OT TIP3
56 19 1 0.417000 10.074000 10.253000 76.097000 # HT TIP3
57 19 1 0.417000 10.521000 8.764000 75.789001 # HT TIP3
58 20 2 -0.834000 8.464000 6.607000 89.953003 # OT TIP3
59 20 1 0.417000 8.742000 5.706000 90.098999 # HT TIP3
60 20 1 0.417000 8.922000 7.045000 90.737000 # HT TIP3
61 21 2 -0.834000 24.677000 14.771000 98.625999 # OT TIP3
62 21 1 0.417000 24.034000 14.442000 97.959000 # HT TIP3
63 21 1 0.417000 25.562000 14.582000 98.181999 # HT TIP3
64 22 2 -0.834000 6.816000 5.788000 87.995003 # OT TIP3
65 22 1 0.417000 7.140000 6.131000 88.862999 # HT TIP3
66 22 1 0.417000 6.063000 6.352000 87.779999 # HT TIP3
67 23 2 -0.834000 2.161000 7.181000 62.443001 # OT TIP3
68 23 1 0.417000 2.443000 6.239000 62.480999 # HT TIP3
69 23 1 0.417000 1.278000 7.099000 61.983002 # HT TIP3
70 24 2 -0.834000 5.321000 21.103001 71.738998 # OT TIP3
71 24 1 0.417000 5.966000 21.282000 72.462997 # HT TIP3
72 24 1 0.417000 5.884000 21.414000 70.956001 # HT TIP3
73 25 2 -0.834000 15.522000 21.355000 73.331001 # OT TIP3
74 25 1 0.417000 14.722000 21.309000 73.792000 # HT TIP3
75 25 1 0.417000 15.173000 21.556999 72.417999 # HT TIP3
76 26 2 -0.834000 1.839000 4.282000 83.314003 # OT TIP3
77 26 1 0.417000 1.339000 3.925000 82.586998 # HT TIP3
78 26 1 0.417000 2.275000 3.577000 83.638000 # HT TIP3
79 27 2 -0.834000 0.985000 15.637000 82.975998 # OT TIP3
80 27 1 0.417000 1.144000 15.925000 83.848999 # HT TIP3
81 27 1 0.417000 0.812000 16.461000 82.474998 # HT TIP3
82 28 2 -0.834000 13.643000 14.295000 93.978996 # OT TIP3
83 28 1 0.417000 13.431000 14.053000 94.856003 # HT TIP3
84 28 1 0.417000 14.023000 15.162000 94.018997 # HT TIP3
85 29 2 -0.834000 12.921000 21.094999 91.843002 # OT TIP3
86 29 1 0.417000 12.830000 21.121000 92.803001 # HT TIP3
87 29 1 0.417000 12.781000 22.025999 91.563004 # HT TIP3
88 30 2 -0.834000 10.455000 18.132999 101.707001 # OT TIP3
89 30 1 0.417000 9.541000 18.361000 101.866997 # HT TIP3
90 30 1 0.417000 10.705000 17.462999 102.447998 # HT TIP3
91 31 2 -0.834000 6.108000 24.417999 73.459000 # OT TIP3
92 31 1 0.417000 5.340000 24.122000 73.044998 # HT TIP3
93 31 1 0.417000 6.537000 24.836000 72.708000 # HT TIP3
94 32 2 -0.834000 10.926000 8.104000 62.903999 # OT TIP3
95 32 1 0.417000 11.261000 8.901000 62.493999 # HT TIP3
96 32 1 0.417000 10.748000 8.389000 63.807999 # HT TIP3
97 33 2 -0.834000 9.069000 26.184000 72.710999 # OT TIP3
98 33 1 0.417000 9.623000 26.042000 73.514999 # HT TIP3
99 33 1 0.417000 9.305000 27.094999 72.427002 # HT TIP3
100 34 2 -0.834000 4.769000 23.252001 76.764999 # OT TIP3
101 34 1 0.417000 4.649000 24.180000 76.388000 # HT TIP3
102 34 1 0.417000 5.561000 23.296000 77.276001 # HT TIP3
103 35 2 -0.834000 4.099000 14.189000 84.083000 # OT TIP3
104 35 1 0.417000 3.930000 13.376000 84.561996 # HT TIP3
105 35 1 0.417000 5.061000 14.269000 84.161003 # HT TIP3
106 36 2 -0.834000 20.452000 2.461000 86.664001 # OT TIP3
107 36 1 0.417000 20.914000 1.579000 86.579002 # HT TIP3
108 36 1 0.417000 21.167000 3.153000 86.513000 # HT TIP3
109 37 2 -0.834000 24.017000 11.539000 103.283997 # OT TIP3
110 37 1 0.417000 23.187000 11.072000 103.393997 # HT TIP3
111 37 1 0.417000 24.510000 11.006000 103.861000 # HT TIP3
112 38 2 -0.834000 23.072001 6.742000 63.978001 # OT TIP3
113 38 1 0.417000 22.205000 6.345000 64.330002 # HT TIP3
114 38 1 0.417000 23.451000 6.159000 63.358002 # HT TIP3
115 39 2 -0.834000 11.426000 5.865000 61.518002 # OT TIP3
116 39 1 0.417000 11.638000 5.269000 62.254002 # HT TIP3
117 39 1 0.417000 11.157000 6.712000 61.993000 # HT TIP3
118 40 2 -0.834000 9.147000 4.814000 79.778000 # OT TIP3
119 40 1 0.417000 8.464000 4.111000 79.825996 # HT TIP3
120 40 1 0.417000 8.543000 5.564000 79.653000 # HT TIP3
121 41 2 -0.834000 8.881000 17.819000 83.775002 # OT TIP3
122 41 1 0.417000 8.016000 17.840000 84.195000 # HT TIP3
123 41 1 0.417000 8.931000 18.763000 83.509003 # HT TIP3
124 42 2 -0.834000 4.842000 11.888000 85.771004 # OT TIP3
125 42 1 0.417000 5.342000 11.197000 86.178001 # HT TIP3
126 42 1 0.417000 5.403000 12.648000 86.078003 # HT TIP3
127 43 2 -0.834000 2.170000 16.174999 89.666000 # OT TIP3
128 43 1 0.417000 2.620000 16.450001 90.473999 # HT TIP3
129 43 1 0.417000 1.263000 16.017000 89.968002 # HT TIP3
130 44 2 -0.834000 16.969999 28.589001 62.681000 # OT TIP3
131 44 1 0.417000 17.354000 27.730000 62.999001 # HT TIP3
132 44 1 0.417000 16.033001 28.356001 62.588001 # HT TIP3
133 45 2 -0.834000 1.302000 25.584000 66.023003 # OT TIP3
134 45 1 0.417000 1.079000 26.565001 66.004997 # HT TIP3
135 45 1 0.417000 2.295000 25.663000 65.945000 # HT TIP3
136 46 2 -0.834000 4.799000 18.274000 67.668999 # OT TIP3
137 46 1 0.417000 3.803000 18.302999 67.821999 # HT TIP3
138 46 1 0.417000 5.033000 19.254999 67.424004 # HT TIP3
139 47 2 -0.834000 9.392000 13.477000 65.820999 # OT TIP3
140 47 1 0.417000 8.619000 12.978000 65.943001 # HT TIP3
141 47 1 0.417000 9.842000 13.057000 65.036003 # HT TIP3
142 48 2 -0.834000 3.208000 21.469000 85.003998 # OT TIP3
143 48 1 0.417000 3.089000 21.445000 84.056000 # HT TIP3
144 48 1 0.417000 3.623000 22.334999 85.049004 # HT TIP3
145 49 2 -0.834000 2.928000 13.231000 90.987000 # OT TIP3
146 49 1 0.417000 3.219000 12.573000 90.330002 # HT TIP3
147 49 1 0.417000 3.082000 14.042000 90.508003 # HT TIP3
148 50 2 -0.834000 14.273000 18.096001 107.613998 # OT TIP3
149 50 1 0.417000 13.329000 18.224001 107.723999 # HT TIP3
150 50 1 0.417000 14.543000 17.648001 108.474998 # HT TIP3
151 51 2 -0.834000 2.674000 18.968000 62.712002 # OT TIP3
152 51 1 0.417000 3.132000 18.128000 62.702999 # HT TIP3
153 51 1 0.417000 3.431000 19.620001 62.780998 # HT TIP3
154 52 2 -0.834000 5.548000 9.546000 97.078003 # OT TIP3
155 52 1 0.417000 5.564000 10.389000 97.558998 # HT TIP3
156 52 1 0.417000 5.122000 9.724000 96.242996 # HT TIP3
157 53 2 -0.834000 12.890000 27.806999 97.860001 # OT TIP3
158 53 1 0.417000 12.345000 28.613001 97.792999 # HT TIP3
159 53 1 0.417000 12.545000 27.420000 98.675003 # HT TIP3
160 54 2 -0.834000 19.370001 21.959999 89.471001 # OT TIP3
161 54 1 0.417000 18.403000 21.788000 89.221001 # HT TIP3
162 54 1 0.417000 19.573999 21.191000 90.091003 # HT TIP3
163 55 2 -0.834000 2.629000 21.940001 106.120003 # OT TIP3
164 55 1 0.417000 3.029000 22.783001 106.411003 # HT TIP3
165 55 1 0.417000 1.890000 21.909000 106.734001 # HT TIP3
166 56 2 -0.834000 14.112000 18.180000 79.122002 # OT TIP3
167 56 1 0.417000 14.244000 17.914000 80.008003 # HT TIP3
168 56 1 0.417000 15.026000 18.330999 78.847000 # HT TIP3
169 57 2 -0.834000 1.787000 24.632000 84.237000 # OT TIP3
170 57 1 0.417000 1.735000 24.424000 85.231003 # HT TIP3
171 57 1 0.417000 2.588000 25.209000 84.139000 # HT TIP3
172 58 2 -0.834000 6.865000 3.174000 88.558998 # OT TIP3
173 58 1 0.417000 6.299000 3.937000 88.348999 # HT TIP3
174 58 1 0.417000 7.675000 3.555000 88.903000 # HT TIP3
175 59 2 -0.834000 9.839000 7.238000 92.401001 # OT TIP3
176 59 1 0.417000 9.404000 7.736000 93.134003 # HT TIP3
177 59 1 0.417000 9.904000 6.338000 92.722000 # HT TIP3
178 60 2 -0.834000 15.914000 7.069000 63.000999 # OT TIP3
179 60 1 0.417000 16.724001 7.358000 62.627998 # HT TIP3
180 60 1 0.417000 15.308000 7.200000 62.171001 # HT TIP3
181 61 2 -0.834000 8.071000 4.298000 94.595001 # OT TIP3
182 61 1 0.417000 7.466000 4.904000 93.994003 # HT TIP3
183 61 1 0.417000 7.946000 4.595000 95.528000 # HT TIP3
184 62 2 -0.834000 10.435000 13.376000 70.691002 # OT TIP3
185 62 1 0.417000 10.209000 12.598000 70.134003 # HT TIP3
186 62 1 0.417000 9.972000 13.266000 71.517998 # HT TIP3
187 63 2 -0.834000 7.560000 2.574000 80.330002 # OT TIP3
188 63 1 0.417000 8.150000 2.119000 81.028000 # HT TIP3
189 63 1 0.417000 6.648000 2.296000 80.535004 # HT TIP3
190 64 2 -0.834000 11.395000 19.825001 99.564003 # OT TIP3
191 64 1 0.417000 10.867000 19.268000 100.168999 # HT TIP3
192 64 1 0.417000 12.286000 19.458000 99.728996 # HT TIP3
193 65 2 -0.834000 10.457000 15.280000 109.233002 # OT TIP3
194 65 1 0.417000 10.558000 14.675000 108.472000 # HT TIP3
195 65 1 0.417000 9.607000 15.696000 109.017998 # HT TIP3
196 66 2 -0.834000 14.391000 2.419000 63.492001 # OT TIP3
197 66 1 0.417000 14.698000 3.181000 63.922001 # HT TIP3
198 66 1 0.417000 13.712000 2.077000 64.078003 # HT TIP3
199 67 2 -0.834000 9.323000 11.081000 69.327003 # OT TIP3
200 67 1 0.417000 8.683000 11.253000 68.648003 # HT TIP3
201 67 1 0.417000 8.889000 10.561000 70.033997 # HT TIP3
202 68 2 -0.834000 9.578000 12.467000 73.234001 # OT TIP3
203 68 1 0.417000 8.728000 12.061000 73.492996 # HT TIP3
204 68 1 0.417000 10.012000 12.694000 74.059998 # HT TIP3
205 69 2 -0.834000 8.869000 17.658001 108.935997 # OT TIP3
206 69 1 0.417000 8.483000 17.521000 108.074997 # HT TIP3
207 69 1 0.417000 8.264000 18.388000 109.285004 # HT TIP3
208 70 2 -0.834000 10.782000 1.140000 62.553001 # OT TIP3
209 70 1 0.417000 10.867000 1.459000 63.515999 # HT TIP3
210 70 1 0.417000 10.243000 1.823000 62.167000 # HT TIP3
211 71 2 -0.834000 5.118000 8.625000 68.277000 # OT TIP3
212 71 1 0.417000 5.905000 8.419000 68.814003 # HT TIP3
213 71 1 0.417000 4.502000 8.958000 68.921997 # HT TIP3
214 72 2 -0.834000 3.903000 5.187000 70.315002 # OT TIP3
215 72 1 0.417000 3.609000 5.772000 69.597000 # HT TIP3
216 72 1 0.417000 4.317000 4.473000 69.827003 # HT TIP3
217 73 2 -0.834000 3.776000 7.965000 79.824997 # OT TIP3
218 73 1 0.417000 3.272000 7.491000 80.463997 # HT TIP3
219 73 1 0.417000 4.104000 8.788000 80.252998 # HT TIP3
220 74 2 -0.834000 3.391000 5.544000 93.112999 # OT TIP3
221 74 1 0.417000 2.760000 5.020000 93.650002 # HT TIP3
222 74 1 0.417000 2.803000 6.010000 92.519997 # HT TIP3
223 75 2 -0.834000 2.340000 8.765000 89.162003 # OT TIP3
224 75 1 0.417000 2.180000 8.544000 88.247002 # HT TIP3
225 75 1 0.417000 2.334000 9.711000 89.233002 # HT TIP3
226 76 2 -0.834000 10.200000 13.593000 106.944000 # OT TIP3
227 76 1 0.417000 11.012000 13.655000 106.512001 # HT TIP3
228 76 1 0.417000 10.281000 12.693000 107.254997 # HT TIP3
229 77 2 -0.834000 1.237000 18.402000 97.589996 # OT TIP3
230 77 1 0.417000 0.959000 19.292000 97.851997 # HT TIP3
231 77 1 0.417000 1.366000 18.448999 96.647003 # HT TIP3
232 78 2 -0.834000 10.478000 8.375000 85.447998 # OT TIP3
233 78 1 0.417000 10.089000 8.126000 86.345001 # HT TIP3
234 78 1 0.417000 10.936000 9.156000 85.686996 # HT TIP3
235 79 2 -0.834000 10.427000 4.685000 93.305000 # OT TIP3
236 79 1 0.417000 9.556000 4.435000 93.702003 # HT TIP3
237 79 1 0.417000 10.860000 3.825000 93.165001 # HT TIP3
238 80 2 -0.834000 21.264999 16.718000 108.872002 # OT TIP3
239 80 1 0.417000 21.322001 16.658001 107.889999 # HT TIP3
240 80 1 0.417000 22.094999 16.357000 109.198997 # HT TIP3
241 81 2 -0.834000 3.619000 10.825000 73.657997 # OT TIP3
242 81 1 0.417000 4.098000 11.400000 73.012001 # HT TIP3
243 81 1 0.417000 3.940000 9.930000 73.461998 # HT TIP3
244 82 2 -0.834000 2.878000 6.306000 76.752998 # OT TIP3
245 82 1 0.417000 2.657000 6.661000 77.598999 # HT TIP3
246 82 1 0.417000 3.801000 6.532000 76.625999 # HT TIP3
247 83 2 -0.834000 6.882000 22.771000 62.819000 # OT TIP3
248 83 1 0.417000 6.050000 22.535000 62.347000 # HT TIP3
249 83 1 0.417000 7.359000 21.972000 62.692001 # HT TIP3
250 84 2 -0.834000 4.517000 4.405000 79.917999 # OT TIP3
251 84 1 0.417000 3.642000 4.542000 79.632004 # HT TIP3
252 84 1 0.417000 5.082000 5.227000 79.794998 # HT TIP3
253 85 2 -0.834000 2.844000 20.972000 82.130997 # OT TIP3
254 85 1 0.417000 3.432000 21.320999 81.445000 # HT TIP3
255 85 1 0.417000 1.967000 21.048000 81.638000 # HT TIP3
256 86 2 -0.834000 21.113001 14.116000 71.566002 # OT TIP3
257 86 1 0.417000 21.239000 14.459000 70.718002 # HT TIP3
258 86 1 0.417000 20.118999 14.316000 71.750000 # HT TIP3
259 87 2 -0.834000 11.992000 6.048000 95.346001 # OT TIP3
260 87 1 0.417000 11.663000 5.704000 94.540001 # HT TIP3
261 87 1 0.417000 11.886000 6.979000 95.359001 # HT TIP3
262 88 2 -0.834000 2.287000 10.018000 85.014999 # OT TIP3
263 88 1 0.417000 2.632000 10.075000 84.146004 # HT TIP3
264 88 1 0.417000 2.360000 10.906000 85.287003 # HT TIP3
265 89 2 -0.834000 4.627000 2.370000 93.261002 # OT TIP3
266 89 1 0.417000 4.330000 2.772000 92.488998 # HT TIP3
267 89 1 0.417000 5.230000 3.062000 93.598000 # HT TIP3
268 90 2 -0.834000 15.026000 11.032000 80.637001 # OT TIP3
269 90 1 0.417000 14.662000 10.233000 81.002998 # HT TIP3
270 90 1 0.417000 14.966000 10.920000 79.694000 # HT TIP3
271 91 2 -0.834000 26.624001 17.094000 77.306999 # OT TIP3
272 91 1 0.417000 27.448000 17.364000 77.744003 # HT TIP3
273 91 1 0.417000 26.636999 17.548000 76.400002 # HT TIP3
274 92 2 -0.834000 9.376000 28.937000 66.079002 # OT TIP3
275 92 1 0.417000 9.727000 28.077000 65.858002 # HT TIP3
276 92 1 0.417000 9.290000 28.898001 67.032997 # HT TIP3
277 93 2 -0.834000 6.073000 15.304000 79.589996 # OT TIP3
278 93 1 0.417000 6.459000 15.839000 80.307999 # HT TIP3
279 93 1 0.417000 6.369000 15.913000 78.831001 # HT TIP3
280 94 2 -0.834000 16.783001 7.854000 83.280998 # OT TIP3
281 94 1 0.417000 16.139999 8.558000 82.948997 # HT TIP3
282 94 1 0.417000 16.473000 7.060000 82.878998 # HT TIP3
283 95 2 -0.834000 23.372000 18.941000 77.288002 # OT TIP3
284 95 1 0.417000 22.701000 18.364000 76.878998 # HT TIP3
285 95 1 0.417000 22.834999 19.481001 77.925003 # HT TIP3
286 96 2 -0.834000 10.605000 1.341000 99.611000 # OT TIP3
287 96 1 0.417000 9.988000 1.950000 99.130997 # HT TIP3
288 96 1 0.417000 11.132000 1.918000 100.205002 # HT TIP3
289 97 2 -0.834000 1.242000 21.146999 97.924004 # OT TIP3
290 97 1 0.417000 0.663000 21.702000 97.355003 # HT TIP3
291 97 1 0.417000 2.032000 20.910000 97.336998 # HT TIP3
292 98 2 -0.834000 2.507000 13.754000 109.153000 # OT TIP3
293 98 1 0.417000 2.133000 13.633000 108.252998 # HT TIP3
294 98 1 0.417000 2.582000 14.701000 109.154999 # HT TIP3
295 99 2 -0.834000 5.958000 13.597000 65.088997 # OT TIP3
296 99 1 0.417000 6.173000 13.519000 64.112000 # HT TIP3
297 99 1 0.417000 5.399000 14.394000 65.156998 # HT TIP3
298 100 2 -0.834000 28.349001 10.368000 79.672997 # OT TIP3
299 100 1 0.417000 27.670000 10.220000 80.362999 # HT TIP3
300 100 1 0.417000 27.903000 10.919000 78.988998 # HT TIP3
301 101 2 -0.834000 5.052000 1.870000 80.830002 # OT TIP3
302 101 1 0.417000 4.774000 2.694000 80.453003 # HT TIP3
303 101 1 0.417000 4.735000 1.301000 80.070999 # HT TIP3
304 102 2 -0.834000 5.094000 25.766001 75.699997 # OT TIP3
305 102 1 0.417000 4.138000 26.000000 75.695999 # HT TIP3
306 102 1 0.417000 5.258000 25.396999 74.811996 # HT TIP3
307 103 2 -0.834000 11.466000 0.987000 88.164001 # OT TIP3
308 103 1 0.417000 11.335000 1.923000 87.974998 # HT TIP3
309 103 1 0.417000 11.058000 0.592000 87.383003 # HT TIP3
310 104 2 -0.834000 7.080000 13.492000 90.191002 # OT TIP3
311 104 1 0.417000 6.930000 14.386000 90.472000 # HT TIP3
312 104 1 0.417000 6.929000 12.999000 90.981003 # HT TIP3
313 105 2 -0.834000 5.660000 14.244000 68.454002 # OT TIP3
314 105 1 0.417000 6.548000 13.922000 68.707001 # HT TIP3
315 105 1 0.417000 5.508000 14.993000 69.028000 # HT TIP3
316 106 2 -0.834000 1.988000 8.254000 92.337997 # OT TIP3
317 106 1 0.417000 1.278000 8.823000 92.695000 # HT TIP3
318 106 1 0.417000 2.043000 8.543000 91.420998 # HT TIP3
319 107 2 -0.834000 3.848000 27.587000 104.869003 # OT TIP3
320 107 1 0.417000 4.347000 27.754999 105.724998 # HT TIP3
321 107 1 0.417000 3.313000 26.834999 105.161003 # HT TIP3
322 108 2 -0.834000 10.890000 6.886000 79.328003 # OT TIP3
323 108 1 0.417000 11.188000 6.984000 80.231003 # HT TIP3
324 108 1 0.417000 10.344000 6.089000 79.420998 # HT TIP3
325 109 2 -0.834000 2.178000 22.441999 61.535000 # OT TIP3
326 109 1 0.417000 1.772000 21.780001 62.091999 # HT TIP3
327 109 1 0.417000 1.998000 23.309000 61.993000 # HT TIP3
328 110 2 -0.834000 10.130000 22.047001 63.500000 # OT TIP3
329 110 1 0.417000 10.101000 22.971001 63.143002 # HT TIP3
330 110 1 0.417000 9.787000 21.454000 62.812000 # HT TIP3
331 111 2 -0.834000 2.844000 11.071000 63.124001 # OT TIP3
332 111 1 0.417000 2.622000 11.253000 64.053001 # HT TIP3
333 111 1 0.417000 3.447000 10.291000 63.117001 # HT TIP3
334 112 2 -0.834000 3.082000 28.135000 82.563004 # OT TIP3
335 112 1 0.417000 2.326000 27.834000 83.110001 # HT TIP3
336 112 1 0.417000 2.641000 28.372999 81.726997 # HT TIP3
337 113 2 -0.834000 8.623000 8.390000 94.605003 # OT TIP3
338 113 1 0.417000 8.783000 8.039000 95.539001 # HT TIP3
339 113 1 0.417000 9.229000 9.134000 94.500000 # HT TIP3
340 114 2 -0.834000 13.885000 10.269000 89.953003 # OT TIP3
341 114 1 0.417000 14.356000 10.891000 90.561996 # HT TIP3
342 114 1 0.417000 13.099000 10.013000 90.464996 # HT TIP3
343 115 2 -0.834000 1.323000 24.167999 63.388000 # OT TIP3
344 115 1 0.417000 2.136000 23.816000 63.840000 # HT TIP3
345 115 1 0.417000 0.753000 24.478001 64.139999 # HT TIP3
346 116 2 -0.834000 13.720000 24.993999 73.592003 # OT TIP3
347 116 1 0.417000 13.391000 25.882999 73.787003 # HT TIP3
348 116 1 0.417000 13.556000 24.417999 74.352997 # HT TIP3
349 117 2 -0.834000 1.495000 28.521000 70.514999 # OT TIP3
350 117 1 0.417000 0.513000 28.481001 70.542999 # HT TIP3
351 117 1 0.417000 1.798000 27.618999 70.763000 # HT TIP3
352 118 2 -0.834000 3.210000 6.685000 68.040001 # OT TIP3
353 118 1 0.417000 2.967000 6.736000 67.060997 # HT TIP3
354 118 1 0.417000 3.910000 7.355000 68.080002 # HT TIP3
355 119 2 -0.834000 7.411000 19.958000 77.834999 # OT TIP3
356 119 1 0.417000 8.017000 20.618000 77.457001 # HT TIP3
357 119 1 0.417000 6.815000 19.636000 77.087997 # HT TIP3
358 120 2 -0.834000 13.836000 24.961000 97.285004 # OT TIP3
359 120 1 0.417000 13.739000 25.664000 97.933998 # HT TIP3
360 120 1 0.417000 14.193000 24.212999 97.744003 # HT TIP3
361 121 2 -0.834000 3.334000 15.543000 94.874001 # OT TIP3
362 121 1 0.417000 2.779000 15.307000 95.623001 # HT TIP3
363 121 1 0.417000 4.107000 15.049000 95.002998 # HT TIP3
364 122 2 -0.834000 23.624001 21.129000 106.124001 # OT TIP3
365 122 1 0.417000 22.610001 21.086000 105.871002 # HT TIP3
366 122 1 0.417000 23.795000 20.163000 106.329002 # HT TIP3
367 123 2 -0.834000 5.679000 21.389999 87.887001 # OT TIP3
368 123 1 0.417000 5.118000 22.106001 88.146004 # HT TIP3
369 123 1 0.417000 5.696000 20.711000 88.607002 # HT TIP3
370 124 2 -0.834000 16.691999 22.903000 64.281998 # OT TIP3
371 124 1 0.417000 16.863001 23.381001 65.122002 # HT TIP3
372 124 1 0.417000 16.927000 23.565001 63.585999 # HT TIP3
373 125 2 -0.834000 14.040000 22.719999 63.248001 # OT TIP3
374 125 1 0.417000 13.465000 22.975000 63.962002 # HT TIP3
375 125 1 0.417000 14.928000 22.903999 63.574001 # HT TIP3
376 126 2 -0.834000 8.889000 18.665001 91.491997 # OT TIP3
377 126 1 0.417000 8.468000 18.270000 90.709999 # HT TIP3
378 126 1 0.417000 8.917000 17.951000 92.140999 # HT TIP3
379 127 2 -0.834000 10.938000 21.737000 101.509003 # OT TIP3
380 127 1 0.417000 11.346000 21.240000 100.767998 # HT TIP3
381 127 1 0.417000 10.077000 21.980000 101.211998 # HT TIP3
382 128 2 -0.834000 15.826000 27.468000 91.902000 # OT TIP3
383 128 1 0.417000 14.953000 27.236000 91.428001 # HT TIP3
384 128 1 0.417000 15.568000 28.120001 92.532997 # HT TIP3
385 129 2 -0.834000 3.771000 19.474001 103.686996 # OT TIP3
386 129 1 0.417000 3.958000 18.573000 103.487999 # HT TIP3
387 129 1 0.417000 3.820000 19.929001 102.813004 # HT TIP3
388 130 2 -0.834000 8.681000 23.965000 68.137001 # OT TIP3
389 130 1 0.417000 9.507000 24.437000 68.203003 # HT TIP3
390 130 1 0.417000 8.017000 24.617001 67.811996 # HT TIP3
391 131 2 -0.834000 11.429000 15.250000 66.218002 # OT TIP3
392 131 1 0.417000 10.550000 15.041000 65.907997 # HT TIP3
393 131 1 0.417000 11.901000 14.379000 66.217003 # HT TIP3
394 132 2 -0.834000 20.159000 26.052000 77.948997 # OT TIP3
395 132 1 0.417000 20.681999 26.846001 77.999001 # HT TIP3
396 132 1 0.417000 19.233999 26.358000 77.880997 # HT TIP3
397 133 2 -0.834000 2.586000 25.952000 78.694000 # OT TIP3
398 133 1 0.417000 2.674000 26.423000 77.893997 # HT TIP3
399 133 1 0.417000 1.772000 26.368999 79.103996 # HT TIP3
400 134 2 -0.834000 2.183000 26.167000 86.832001 # OT TIP3
401 134 1 0.417000 3.080000 26.407000 86.926003 # HT TIP3
402 134 1 0.417000 1.985000 25.726999 87.625999 # HT TIP3
403 135 2 -0.834000 23.830999 22.118999 78.569000 # OT TIP3
404 135 1 0.417000 23.636999 23.016001 78.956001 # HT TIP3
405 135 1 0.417000 23.163000 21.485001 78.949997 # HT TIP3
406 136 2 -0.834000 17.007000 17.670000 81.505997 # OT TIP3
407 136 1 0.417000 17.726000 17.506001 80.794998 # HT TIP3
408 136 1 0.417000 16.530001 16.797001 81.582001 # HT TIP3
409 137 2 -0.834000 4.290000 23.818001 86.567001 # OT TIP3
410 137 1 0.417000 4.611000 24.184000 87.401001 # HT TIP3
411 137 1 0.417000 3.335000 23.695999 86.748001 # HT TIP3
412 138 2 -0.834000 1.247000 4.969000 71.079002 # OT TIP3
413 138 1 0.417000 0.926000 4.068000 70.838997 # HT TIP3
414 138 1 0.417000 2.005000 5.085000 70.489998 # HT TIP3
415 139 2 -0.834000 16.221001 3.484000 105.533997 # OT TIP3
416 139 1 0.417000 16.417000 3.785000 106.486000 # HT TIP3
417 139 1 0.417000 15.448000 3.970000 105.276001 # HT TIP3
418 140 2 -0.834000 5.856000 5.888000 76.545998 # OT TIP3
419 140 1 0.417000 6.384000 6.564000 76.960999 # HT TIP3
420 140 1 0.417000 6.092000 5.122000 77.037003 # HT TIP3
421 141 2 -0.834000 2.389000 6.085000 90.041000 # OT TIP3
422 141 1 0.417000 2.438000 7.002000 89.763000 # HT TIP3
423 141 1 0.417000 1.515000 5.812000 89.644997 # HT TIP3
424 142 2 -0.834000 3.181000 3.048000 101.652000 # OT TIP3
425 142 1 0.417000 3.098000 2.090000 101.494003 # HT TIP3
426 142 1 0.417000 3.870000 3.157000 102.370003 # HT TIP3
427 143 2 -0.834000 11.204000 7.221000 76.383003 # OT TIP3
428 143 1 0.417000 11.401000 7.412000 77.335999 # HT TIP3
429 143 1 0.417000 10.627000 6.472000 76.498001 # HT TIP3
430 144 2 -0.834000 27.396999 12.594000 61.179001 # OT TIP3
431 144 1 0.417000 27.014000 11.780000 60.804001 # HT TIP3
432 144 1 0.417000 28.375000 12.427000 61.053001 # HT TIP3
433 145 2 -0.834000 2.689000 2.206000 85.377998 # OT TIP3
434 145 1 0.417000 1.964000 1.591000 85.209999 # HT TIP3
435 145 1 0.417000 2.625000 2.305000 86.400002 # HT TIP3
436 146 2 -0.834000 12.263000 20.114000 70.458000 # OT TIP3
437 146 1 0.417000 12.779000 20.905001 70.365997 # HT TIP3
438 146 1 0.417000 12.935000 19.405001 70.401001 # HT TIP3
439 147 2 -0.834000 8.364000 11.103000 89.449997 # OT TIP3
440 147 1 0.417000 7.969000 11.775000 90.007004 # HT TIP3
441 147 1 0.417000 7.654000 10.492000 89.282997 # HT TIP3
442 148 2 -0.834000 5.147000 7.132000 98.033997 # OT TIP3
443 148 1 0.417000 4.342000 6.676000 97.697998 # HT TIP3
444 148 1 0.417000 5.130000 7.986000 97.589996 # HT TIP3
445 149 2 -0.834000 11.393000 8.916000 90.815002 # OT TIP3
446 149 1 0.417000 11.239000 8.287000 90.038002 # HT TIP3
447 149 1 0.417000 10.861000 8.471000 91.473999 # HT TIP3
448 150 2 -0.834000 7.585000 12.823000 105.401001 # OT TIP3
449 150 1 0.417000 7.528000 12.015000 105.980003 # HT TIP3
450 150 1 0.417000 8.497000 12.862000 105.142998 # HT TIP3
451 151 2 -0.834000 7.527000 2.724000 73.911003 # OT TIP3
452 151 1 0.417000 6.685000 3.301000 74.035004 # HT TIP3
453 151 1 0.417000 7.192000 1.903000 74.241997 # HT TIP3
454 152 2 -0.834000 18.312000 6.271000 66.375999 # OT TIP3
455 152 1 0.417000 17.719999 6.816000 65.879997 # HT TIP3
456 152 1 0.417000 18.051001 5.369000 66.168999 # HT TIP3
457 153 2 -0.834000 4.528000 8.199000 73.276001 # OT TIP3
458 153 1 0.417000 5.077000 7.693000 72.638000 # HT TIP3
459 153 1 0.417000 3.671000 7.820000 73.043999 # HT TIP3
460 154 2 -0.834000 11.549000 10.380000 87.382004 # OT TIP3
461 154 1 0.417000 11.895000 9.981000 88.154999 # HT TIP3
462 154 1 0.417000 12.405000 10.595000 86.883003 # HT TIP3
463 155 2 -0.834000 22.632999 3.386000 80.343002 # OT TIP3
464 155 1 0.417000 23.429001 3.096000 80.762001 # HT TIP3
465 155 1 0.417000 21.986000 3.328000 81.060997 # HT TIP3
466 156 2 -0.834000 21.475000 7.800000 91.075996 # OT TIP3
467 156 1 0.417000 22.281000 7.230000 90.918999 # HT TIP3
468 156 1 0.417000 21.789000 8.319000 91.805000 # HT TIP3
469 157 2 -0.834000 13.021000 13.516000 107.223999 # OT TIP3
470 157 1 0.417000 13.311000 14.141000 108.035004 # HT TIP3
471 157 1 0.417000 13.765000 12.884000 107.147003 # HT TIP3
472 158 2 -0.834000 12.993000 9.951000 62.715000 # OT TIP3
473 158 1 0.417000 13.408000 10.340000 63.487000 # HT TIP3
474 158 1 0.417000 13.482000 9.141000 62.539001 # HT TIP3
475 159 2 -0.834000 11.677000 10.110000 68.428001 # OT TIP3
476 159 1 0.417000 10.943000 10.672000 68.553001 # HT TIP3
477 159 1 0.417000 11.366000 9.288000 68.797997 # HT TIP3
478 160 2 -0.834000 2.338000 3.706000 75.898003 # OT TIP3
479 160 1 0.417000 2.701000 4.581000 76.044998 # HT TIP3
480 160 1 0.417000 2.617000 3.499000 74.921997 # HT TIP3
481 161 2 -0.834000 16.632999 13.093000 77.407997 # OT TIP3
482 161 1 0.417000 15.852000 13.269000 76.890999 # HT TIP3
483 161 1 0.417000 16.386999 12.376000 78.011002 # HT TIP3
484 162 2 -0.834000 2.399000 12.124000 78.392998 # OT TIP3
485 162 1 0.417000 1.639000 12.178000 77.805000 # HT TIP3
486 162 1 0.417000 2.758000 13.035000 78.355003 # HT TIP3
487 163 2 -0.834000 9.720000 14.404000 77.839996 # OT TIP3
488 163 1 0.417000 10.562000 14.698000 78.237999 # HT TIP3
489 163 1 0.417000 9.894000 13.499000 77.601997 # HT TIP3
490 164 2 -0.834000 3.958000 10.368000 82.918999 # OT TIP3
491 164 1 0.417000 4.898000 10.516000 83.153999 # HT TIP3
492 164 1 0.417000 3.948000 10.689000 81.995003 # HT TIP3
493 165 2 -0.834000 3.424000 4.643000 87.459000 # OT TIP3
494 165 1 0.417000 4.058000 5.046000 86.875999 # HT TIP3
495 165 1 0.417000 3.165000 5.330000 88.092003 # HT TIP3
496 166 2 -0.834000 1.250000 3.438000 93.960999 # OT TIP3
497 166 1 0.417000 1.244000 3.009000 94.815002 # HT TIP3
498 166 1 0.417000 0.891000 4.309000 94.242996 # HT TIP3
499 167 2 -0.834000 11.167000 12.934000 96.002998 # OT TIP3
500 167 1 0.417000 10.374000 13.448000 95.726997 # HT TIP3
501 167 1 0.417000 11.439000 13.445000 96.713997 # HT TIP3
502 168 2 -0.834000 18.941000 16.634001 64.339996 # OT TIP3
503 168 1 0.417000 19.110001 16.988001 63.467999 # HT TIP3
504 168 1 0.417000 19.613001 15.907000 64.460999 # HT TIP3
505 169 2 -0.834000 15.930000 3.774000 67.906998 # OT TIP3
506 169 1 0.417000 15.958000 3.241000 68.656998 # HT TIP3
507 169 1 0.417000 16.433001 3.240000 67.269997 # HT TIP3
508 170 2 -0.834000 13.634000 5.035000 67.058998 # OT TIP3
509 170 1 0.417000 12.934000 4.432000 67.438004 # HT TIP3
510 170 1 0.417000 14.459000 4.662000 67.464996 # HT TIP3
511 171 2 -0.834000 6.208000 4.926000 84.917999 # OT TIP3
512 171 1 0.417000 6.502000 5.203000 85.800003 # HT TIP3