LAMMPS data file. CGCMM style. atom_style full generated by VMD/TopoTools v1.1 on Tue Jun 19 22:39:00 +0800 2012
 1641 atoms
 1094 bonds
 547 angles
 0 dihedrals
 0 impropers
 2 atom types
 1 bond types
 1 angle types
 0 dihedral types
 0 improper types
 0.957001 28.957001  xlo xhi
 0.913000 28.913000  ylo yhi
 61.048498 84.048498  zlo zhi

# Pair Coeffs
#
# 1  HT
# 2  OT

# Bond Coeffs
#
# 1  

# Angle Coeffs
#
# 1  unknown

 Masses

 1 1.007940 # HT
 2 15.999400 # OT

 Atoms

1 1 2 -0.834000 4.668000 11.082000 76.903999 # OT TIP3
2 1 1 0.417000 4.224000 11.451000 76.100998 # HT TIP3
3 1 1 0.417000 4.092000 11.379000 77.626999 # HT TIP3
4 2 2 -0.834000 7.033000 5.876000 81.890999 # OT TIP3
5 2 1 0.417000 7.078000 6.224000 82.797997 # HT TIP3
6 2 1 0.417000 7.592000 5.088000 81.960999 # HT TIP3
7 3 2 -0.834000 6.186000 17.695999 73.071999 # OT TIP3
8 3 1 0.417000 7.083000 17.979000 72.816002 # HT TIP3
9 3 1 0.417000 6.337000 16.832001 73.489998 # HT TIP3
10 4 2 -0.834000 9.324000 14.811000 82.332001 # OT TIP3
11 4 1 0.417000 9.633000 14.348000 83.112000 # HT TIP3
12 4 1 0.417000 9.506000 14.116000 81.644997 # HT TIP3
13 5 2 -0.834000 4.786000 17.318001 62.310001 # OT TIP3
14 5 1 0.417000 4.781000 16.388000 62.195999 # HT TIP3
15 5 1 0.417000 5.528000 17.580000 61.780998 # HT TIP3
16 6 2 -0.834000 7.205000 7.991000 79.442001 # OT TIP3
17 6 1 0.417000 7.782000 8.347000 80.152000 # HT TIP3
18 6 1 0.417000 6.309000 8.062000 79.800003 # HT TIP3
19 7 2 -0.834000 17.125999 15.701000 65.577003 # OT TIP3
20 7 1 0.417000 17.070000 15.272000 64.725998 # HT TIP3
21 7 1 0.417000 17.805000 16.454000 65.445000 # HT TIP3
22 8 2 -0.834000 3.750000 9.844000 70.628998 # OT TIP3
23 8 1 0.417000 3.110000 9.290000 70.998001 # HT TIP3
24 8 1 0.417000 3.164000 10.245000 69.961998 # HT TIP3
25 9 2 -0.834000 4.935000 17.195000 83.109001 # OT TIP3
26 9 1 0.417000 5.870000 17.034000 82.985001 # HT TIP3
27 9 1 0.417000 4.655000 16.367001 83.581001 # HT TIP3
28 10 2 -0.834000 11.674000 9.909000 65.986000 # OT TIP3
29 10 1 0.417000 11.998000 9.871000 66.931999 # HT TIP3
30 10 1 0.417000 10.748000 10.270000 66.074997 # HT TIP3
31 11 2 -0.834000 1.002000 6.667000 75.591003 # OT TIP3
32 11 1 0.417000 1.483000 6.990000 74.830002 # HT TIP3
33 11 1 0.417000 1.608000 6.781000 76.347000 # HT TIP3
34 12 2 -0.834000 10.882000 10.156000 75.916000 # OT TIP3
35 12 1 0.417000 10.574000 10.753000 76.597000 # HT TIP3
36 12 1 0.417000 11.021000 9.264000 76.289001 # HT TIP3
37 13 2 -0.834000 2.661000 7.681000 62.943001 # OT TIP3
38 13 1 0.417000 2.943000 6.739000 62.980999 # HT TIP3
39 13 1 0.417000 1.778000 7.599000 62.483002 # HT TIP3
40 14 2 -0.834000 5.821000 21.603001 72.238998 # OT TIP3
41 14 1 0.417000 6.466000 21.782000 72.962997 # HT TIP3
42 14 1 0.417000 6.384000 21.914000 71.456001 # HT TIP3
43 15 2 -0.834000 16.021999 21.855000 73.831001 # OT TIP3
44 15 1 0.417000 15.222000 21.809000 74.292000 # HT TIP3
45 15 1 0.417000 15.673000 22.056999 72.917999 # HT TIP3
46 16 2 -0.834000 6.608000 24.917999 73.959000 # OT TIP3
47 16 1 0.417000 5.840000 24.622000 73.544998 # HT TIP3
48 16 1 0.417000 7.037000 25.336000 73.208000 # HT TIP3
49 17 2 -0.834000 11.426000 8.604000 63.403999 # OT TIP3
50 17 1 0.417000 11.761000 9.401000 62.993999 # HT TIP3
51 17 1 0.417000 11.248000 8.889000 64.307999 # HT TIP3
52 18 2 -0.834000 9.569000 26.684000 73.210999 # OT TIP3
53 18 1 0.417000 10.123000 26.542000 74.014999 # HT TIP3
54 18 1 0.417000 9.805000 27.594999 72.927002 # HT TIP3
55 19 2 -0.834000 5.269000 23.752001 77.264999 # OT TIP3
56 19 1 0.417000 5.149000 24.680000 76.888000 # HT TIP3
57 19 1 0.417000 6.061000 23.796000 77.776001 # HT TIP3
58 20 2 -0.834000 23.572001 7.242000 64.477997 # OT TIP3
59 20 1 0.417000 22.705000 6.845000 64.830002 # HT TIP3
60 20 1 0.417000 23.951000 6.659000 63.858002 # HT TIP3
61 21 2 -0.834000 11.926000 6.365000 62.018002 # OT TIP3
62 21 1 0.417000 12.138000 5.769000 62.754002 # HT TIP3
63 21 1 0.417000 11.657000 7.212000 62.493000 # HT TIP3
64 22 2 -0.834000 9.647000 5.314000 80.278000 # OT TIP3
65 22 1 0.417000 8.964000 4.611000 80.325996 # HT TIP3
66 22 1 0.417000 9.043000 6.064000 80.153000 # HT TIP3
67 23 2 -0.834000 1.802000 26.084000 66.523003 # OT TIP3
68 23 1 0.417000 1.579000 27.065001 66.504997 # HT TIP3
69 23 1 0.417000 2.795000 26.163000 66.445000 # HT TIP3
70 24 2 -0.834000 5.299000 18.774000 68.168999 # OT TIP3
71 24 1 0.417000 4.303000 18.802999 68.321999 # HT TIP3
72 24 1 0.417000 5.533000 19.754999 67.924004 # HT TIP3
73 25 2 -0.834000 9.892000 13.977000 66.320999 # OT TIP3
74 25 1 0.417000 9.119000 13.478000 66.443001 # HT TIP3
75 25 1 0.417000 10.342000 13.557000 65.536003 # HT TIP3
76 26 2 -0.834000 3.174000 19.468000 63.212002 # OT TIP3
77 26 1 0.417000 3.632000 18.628000 63.202999 # HT TIP3
78 26 1 0.417000 3.931000 20.120001 63.280998 # HT TIP3
79 27 2 -0.834000 14.612000 18.680000 79.622002 # OT TIP3
80 27 1 0.417000 14.744000 18.414000 80.508003 # HT TIP3
81 27 1 0.417000 15.526000 18.830999 79.347000 # HT TIP3
82 28 2 -0.834000 16.414000 7.569000 63.500999 # OT TIP3
83 28 1 0.417000 17.224001 7.858000 63.127998 # HT TIP3
84 28 1 0.417000 15.808000 7.700000 62.671001 # HT TIP3
85 29 2 -0.834000 10.935000 13.876000 71.191002 # OT TIP3
86 29 1 0.417000 10.709000 13.098000 70.634003 # HT TIP3
87 29 1 0.417000 10.472000 13.766000 72.017998 # HT TIP3
88 30 2 -0.834000 8.060000 3.074000 80.830002 # OT TIP3
89 30 1 0.417000 8.650000 2.619000 81.528000 # HT TIP3
90 30 1 0.417000 7.148000 2.796000 81.035004 # HT TIP3
91 31 2 -0.834000 14.891000 2.919000 63.992001 # OT TIP3
92 31 1 0.417000 15.198000 3.681000 64.421997 # HT TIP3
93 31 1 0.417000 14.212000 2.577000 64.578003 # HT TIP3
94 32 2 -0.834000 9.823000 11.581000 69.827003 # OT TIP3
95 32 1 0.417000 9.183000 11.753000 69.148003 # HT TIP3
96 32 1 0.417000 9.389000 11.061000 70.533997 # HT TIP3
97 33 2 -0.834000 10.078000 12.967000 73.734001 # OT TIP3
98 33 1 0.417000 9.228000 12.561000 73.992996 # HT TIP3
99 33 1 0.417000 10.512000 13.194000 74.559998 # HT TIP3
100 34 2 -0.834000 11.282000 1.640000 63.053001 # OT TIP3
101 34 1 0.417000 11.367000 1.959000 64.015999 # HT TIP3
102 34 1 0.417000 10.743000 2.323000 62.667000 # HT TIP3
103 35 2 -0.834000 5.618000 9.125000 68.777000 # OT TIP3
104 35 1 0.417000 6.405000 8.919000 69.314003 # HT TIP3
105 35 1 0.417000 5.002000 9.458000 69.421997 # HT TIP3
106 36 2 -0.834000 4.403000 5.687000 70.815002 # OT TIP3
107 36 1 0.417000 4.109000 6.272000 70.097000 # HT TIP3
108 36 1 0.417000 4.817000 4.973000 70.327003 # HT TIP3
109 37 2 -0.834000 4.276000 8.465000 80.324997 # OT TIP3
110 37 1 0.417000 3.772000 7.991000 80.963997 # HT TIP3
111 37 1 0.417000 4.604000 9.288000 80.752998 # HT TIP3
112 38 2 -0.834000 4.119000 11.325000 74.157997 # OT TIP3
113 38 1 0.417000 4.598000 11.900000 73.512001 # HT TIP3
114 38 1 0.417000 4.440000 10.430000 73.961998 # HT TIP3
115 39 2 -0.834000 3.378000 6.806000 77.252998 # OT TIP3
116 39 1 0.417000 3.157000 7.161000 78.098999 # HT TIP3
117 39 1 0.417000 4.301000 7.032000 77.125999 # HT TIP3
118 40 2 -0.834000 7.382000 23.271000 63.319000 # OT TIP3
119 40 1 0.417000 6.550000 23.035000 62.847000 # HT TIP3
120 40 1 0.417000 7.859000 22.472000 63.192001 # HT TIP3
121 41 2 -0.834000 5.017000 4.905000 80.417999 # OT TIP3
122 41 1 0.417000 4.142000 5.042000 80.132004 # HT TIP3
123 41 1 0.417000 5.582000 5.727000 80.294998 # HT TIP3
124 42 2 -0.834000 3.344000 21.472000 82.630997 # OT TIP3
125 42 1 0.417000 3.932000 21.820999 81.945000 # HT TIP3
126 42 1 0.417000 2.467000 21.548000 82.138000 # HT TIP3
127 43 2 -0.834000 21.613001 14.616000 72.066002 # OT TIP3
128 43 1 0.417000 21.739000 14.959000 71.218002 # HT TIP3
129 43 1 0.417000 20.618999 14.816000 72.250000 # HT TIP3
130 44 2 -0.834000 15.526000 11.532000 81.137001 # OT TIP3
131 44 1 0.417000 15.162000 10.733000 81.502998 # HT TIP3
132 44 1 0.417000 15.466000 11.420000 80.194000 # HT TIP3
133 45 2 -0.834000 27.124001 17.594000 77.806999 # OT TIP3
134 45 1 0.417000 27.948000 17.864000 78.244003 # HT TIP3
135 45 1 0.417000 27.136999 18.048000 76.900002 # HT TIP3
136 46 2 -0.834000 6.573000 15.804000 80.089996 # OT TIP3
137 46 1 0.417000 6.959000 16.339001 80.807999 # HT TIP3
138 46 1 0.417000 6.869000 16.413000 79.331001 # HT TIP3
139 47 2 -0.834000 17.283001 8.354000 83.780998 # OT TIP3
140 47 1 0.417000 16.639999 9.058000 83.448997 # HT TIP3
141 47 1 0.417000 16.973000 7.560000 83.378998 # HT TIP3
142 48 2 -0.834000 23.872000 19.441000 77.788002 # OT TIP3
143 48 1 0.417000 23.201000 18.864000 77.378998 # HT TIP3
144 48 1 0.417000 23.334999 19.981001 78.425003 # HT TIP3
145 49 2 -0.834000 6.458000 14.097000 65.588997 # OT TIP3
146 49 1 0.417000 6.673000 14.019000 64.612000 # HT TIP3
147 49 1 0.417000 5.899000 14.894000 65.656998 # HT TIP3
148 50 2 -0.834000 28.849001 10.868000 80.172997 # OT TIP3
149 50 1 0.417000 28.170000 10.720000 80.862999 # HT TIP3
150 50 1 0.417000 28.403000 11.419000 79.488998 # HT TIP3
151 51 2 -0.834000 5.552000 2.370000 81.330002 # OT TIP3
152 51 1 0.417000 5.274000 3.194000 80.953003 # HT TIP3
153 51 1 0.417000 5.235000 1.801000 80.570999 # HT TIP3
154 52 2 -0.834000 5.594000 26.266001 76.199997 # OT TIP3
155 52 1 0.417000 4.638000 26.500000 76.195999 # HT TIP3
156 52 1 0.417000 5.758000 25.896999 75.311996 # HT TIP3
157 53 2 -0.834000 6.160000 14.744000 68.954002 # OT TIP3
158 53 1 0.417000 7.048000 14.422000 69.207001 # HT TIP3
159 53 1 0.417000 6.008000 15.493000 69.528000 # HT TIP3
160 54 2 -0.834000 11.390000 7.386000 79.828003 # OT TIP3
161 54 1 0.417000 11.688000 7.484000 80.731003 # HT TIP3
162 54 1 0.417000 10.844000 6.589000 79.920998 # HT TIP3
163 55 2 -0.834000 2.678000 22.941999 62.035000 # OT TIP3
164 55 1 0.417000 2.272000 22.280001 62.591999 # HT TIP3
165 55 1 0.417000 2.498000 23.809000 62.493000 # HT TIP3
166 56 2 -0.834000 10.630000 22.547001 64.000000 # OT TIP3
167 56 1 0.417000 10.601000 23.471001 63.643002 # HT TIP3
168 56 1 0.417000 10.287000 21.954000 63.312000 # HT TIP3
169 57 2 -0.834000 3.344000 11.571000 63.624001 # OT TIP3
170 57 1 0.417000 3.122000 11.753000 64.553001 # HT TIP3
171 57 1 0.417000 3.947000 10.791000 63.617001 # HT TIP3
172 58 2 -0.834000 3.582000 28.635000 83.063004 # OT TIP3
173 58 1 0.417000 2.826000 28.334000 83.610001 # HT TIP3
174 58 1 0.417000 3.141000 28.872999 82.226997 # HT TIP3
175 59 2 -0.834000 1.823000 24.667999 63.888000 # OT TIP3
176 59 1 0.417000 2.636000 24.316000 64.339996 # HT TIP3
177 59 1 0.417000 1.253000 24.978001 64.639999 # HT TIP3
178 60 2 -0.834000 14.220000 25.493999 74.092003 # OT TIP3
179 60 1 0.417000 13.891000 26.382999 74.287003 # HT TIP3
180 60 1 0.417000 14.056000 24.917999 74.852997 # HT TIP3
181 61 2 -0.834000 3.710000 7.185000 68.540001 # OT TIP3
182 61 1 0.417000 3.467000 7.236000 67.560997 # HT TIP3
183 61 1 0.417000 4.410000 7.855000 68.580002 # HT TIP3
184 62 2 -0.834000 7.911000 20.458000 78.334999 # OT TIP3
185 62 1 0.417000 8.517000 21.118000 77.957001 # HT TIP3
186 62 1 0.417000 7.315000 20.136000 77.587997 # HT TIP3
187 63 2 -0.834000 17.191999 23.403000 64.781998 # OT TIP3
188 63 1 0.417000 17.363001 23.881001 65.622002 # HT TIP3
189 63 1 0.417000 17.427000 24.065001 64.085999 # HT TIP3
190 64 2 -0.834000 14.540000 23.219999 63.748001 # OT TIP3
191 64 1 0.417000 13.965000 23.475000 64.461998 # HT TIP3
192 64 1 0.417000 15.428000 23.403999 64.073997 # HT TIP3
193 65 2 -0.834000 9.181000 24.465000 68.637001 # OT TIP3
194 65 1 0.417000 10.007000 24.937000 68.703003 # HT TIP3
195 65 1 0.417000 8.517000 25.117001 68.311996 # HT TIP3
196 66 2 -0.834000 11.929000 15.750000 66.718002 # OT TIP3
197 66 1 0.417000 11.050000 15.541000 66.407997 # HT TIP3
198 66 1 0.417000 12.401000 14.879000 66.717003 # HT TIP3
199 67 2 -0.834000 20.659000 26.552000 78.448997 # OT TIP3
200 67 1 0.417000 21.181999 27.346001 78.499001 # HT TIP3
201 67 1 0.417000 19.733999 26.858000 78.380997 # HT TIP3
202 68 2 -0.834000 3.086000 26.452000 79.194000 # OT TIP3
203 68 1 0.417000 3.174000 26.923000 78.393997 # HT TIP3
204 68 1 0.417000 2.272000 26.868999 79.603996 # HT TIP3
205 69 2 -0.834000 24.330999 22.618999 79.069000 # OT TIP3
206 69 1 0.417000 24.136999 23.516001 79.456001 # HT TIP3
207 69 1 0.417000 23.663000 21.985001 79.449997 # HT TIP3
208 70 2 -0.834000 17.507000 18.170000 82.005997 # OT TIP3
209 70 1 0.417000 18.226000 18.006001 81.294998 # HT TIP3
210 70 1 0.417000 17.030001 17.297001 82.082001 # HT TIP3
211 71 2 -0.834000 1.747000 5.469000 71.579002 # OT TIP3
212 71 1 0.417000 1.426000 4.568000 71.338997 # HT TIP3
213 71 1 0.417000 2.505000 5.585000 70.989998 # HT TIP3
214 72 2 -0.834000 6.356000 6.388000 77.045998 # OT TIP3
215 72 1 0.417000 6.884000 7.064000 77.460999 # HT TIP3
216 72 1 0.417000 6.592000 5.622000 77.537003 # HT TIP3
217 73 2 -0.834000 11.704000 7.721000 76.883003 # OT TIP3
218 73 1 0.417000 11.901000 7.912000 77.835999 # HT TIP3
219 73 1 0.417000 11.127000 6.972000 76.998001 # HT TIP3
220 74 2 -0.834000 27.896999 13.094000 61.679001 # OT TIP3
221 74 1 0.417000 27.514000 12.280000 61.304001 # HT TIP3
222 74 1 0.417000 28.875000 12.927000 61.553001 # HT TIP3
223 75 2 -0.834000 12.763000 20.614000 70.958000 # OT TIP3
224 75 1 0.417000 13.279000 21.405001 70.865997 # HT TIP3
225 75 1 0.417000 13.435000 19.905001 70.901001 # HT TIP3
226 76 2 -0.834000 8.027000 3.224000 74.411003 # OT TIP3
227 76 1 0.417000 7.185000 3.801000 74.535004 # HT TIP3
228 76 1 0.417000 7.692000 2.403000 74.741997 # HT TIP3
229 77 2 -0.834000 18.812000 6.771000 66.875999 # OT TIP3
230 77 1 0.417000 18.219999 7.316000 66.379997 # HT TIP3
231 77 1 0.417000 18.551001 5.869000 66.668999 # HT TIP3
232 78 2 -0.834000 5.028000 8.699000 73.776001 # OT TIP3
233 78 1 0.417000 5.577000 8.193000 73.138000 # HT TIP3
234 78 1 0.417000 4.171000 8.320000 73.543999 # HT TIP3
235 79 2 -0.834000 23.132999 3.886000 80.843002 # OT TIP3
236 79 1 0.417000 23.929001 3.596000 81.262001 # HT TIP3
237 79 1 0.417000 22.486000 3.828000 81.560997 # HT TIP3
238 80 2 -0.834000 13.493000 10.451000 63.215000 # OT TIP3
239 80 1 0.417000 13.908000 10.840000 63.987000 # HT TIP3
240 80 1 0.417000 13.982000 9.641000 63.039001 # HT TIP3
241 81 2 -0.834000 12.177000 10.610000 68.928001 # OT TIP3
242 81 1 0.417000 11.443000 11.172000 69.053001 # HT TIP3
243 81 1 0.417000 11.866000 9.788000 69.297997 # HT TIP3
244 82 2 -0.834000 2.838000 4.206000 76.398003 # OT TIP3
245 82 1 0.417000 3.201000 5.081000 76.544998 # HT TIP3
246 82 1 0.417000 3.117000 3.999000 75.421997 # HT TIP3
247 83 2 -0.834000 17.132999 13.593000 77.907997 # OT TIP3
248 83 1 0.417000 16.351999 13.769000 77.390999 # HT TIP3
249 83 1 0.417000 16.886999 12.876000 78.511002 # HT TIP3
250 84 2 -0.834000 2.899000 12.624000 78.892998 # OT TIP3
251 84 1 0.417000 2.139000 12.678000 78.305000 # HT TIP3
252 84 1 0.417000 3.258000 13.535000 78.855003 # HT TIP3
253 85 2 -0.834000 10.220000 14.904000 78.339996 # OT TIP3
254 85 1 0.417000 11.062000 15.198000 78.737999 # HT TIP3
255 85 1 0.417000 10.394000 13.999000 78.101997 # HT TIP3
256 86 2 -0.834000 4.458000 10.868000 83.418999 # OT TIP3
257 86 1 0.417000 5.398000 11.016000 83.653999 # HT TIP3
258 86 1 0.417000 4.448000 11.189000 82.495003 # HT TIP3
259 87 2 -0.834000 19.441000 17.134001 64.839996 # OT TIP3
260 87 1 0.417000 19.610001 17.488001 63.967999 # HT TIP3
261 87 1 0.417000 20.113001 16.407000 64.960999 # HT TIP3
262 88 2 -0.834000 16.430000 4.274000 68.406998 # OT TIP3
263 88 1 0.417000 16.458000 3.741000 69.156998 # HT TIP3
264 88 1 0.417000 16.933001 3.740000 67.769997 # HT TIP3
265 89 2 -0.834000 14.134000 5.535000 67.558998 # OT TIP3
266 89 1 0.417000 13.434000 4.932000 67.938004 # HT TIP3
267 89 1 0.417000 14.959000 5.162000 67.964996 # HT TIP3
268 90 2 -0.834000 17.320999 20.495001 76.870003 # OT TIP3
269 90 1 0.417000 17.959999 20.159000 76.192001 # HT TIP3
270 90 1 0.417000 17.854000 21.132000 77.388000 # HT TIP3
271 91 2 -0.834000 11.295000 15.066000 75.320000 # OT TIP3
272 91 1 0.417000 11.592000 15.067000 76.225998 # HT TIP3
273 91 1 0.417000 10.322000 15.226000 75.349998 # HT TIP3
274 92 2 -0.834000 17.007999 18.797001 72.410004 # OT TIP3
275 92 1 0.417000 17.695000 18.702000 71.683998 # HT TIP3
276 92 1 0.417000 16.186001 18.521000 71.942001 # HT TIP3
277 93 2 -0.834000 16.398001 2.552000 79.246002 # OT TIP3
278 93 1 0.417000 17.016001 2.951000 78.566002 # HT TIP3
279 93 1 0.417000 15.574000 3.011000 79.109001 # HT TIP3
280 94 2 -0.834000 8.830000 20.750999 62.994999 # OT TIP3
281 94 1 0.417000 8.257000 20.870001 62.247002 # HT TIP3
282 94 1 0.417000 9.329000 19.923000 62.884998 # HT TIP3
283 95 2 -0.834000 14.663000 27.431999 67.528999 # OT TIP3
284 95 1 0.417000 14.851000 27.261000 68.482002 # HT TIP3
285 95 1 0.417000 14.355000 28.375000 67.531998 # HT TIP3
286 96 2 -0.834000 16.027000 12.249000 70.806000 # OT TIP3
287 96 1 0.417000 16.636000 11.953000 70.103996 # HT TIP3
288 96 1 0.417000 15.929000 13.194000 70.544998 # HT TIP3
289 97 2 -0.834000 11.274000 12.448000 81.959000 # OT TIP3
290 97 1 0.417000 11.893000 12.073000 82.653999 # HT TIP3
291 97 1 0.417000 11.344000 11.891000 81.237999 # HT TIP3
292 98 2 -0.834000 12.473000 7.075000 82.702003 # OT TIP3
293 98 1 0.417000 13.046000 6.667000 83.431000 # HT TIP3
294 98 1 0.417000 11.554000 6.939000 83.099998 # HT TIP3
295 99 2 -0.834000 14.912000 27.462000 63.285999 # OT TIP3
296 99 1 0.417000 14.667000 28.388000 63.539001 # HT TIP3
297 99 1 0.417000 14.488000 26.916000 64.000000 # HT TIP3
298 100 2 -0.834000 22.007999 4.270000 76.172997 # OT TIP3
299 100 1 0.417000 21.389999 5.036000 76.084000 # HT TIP3
300 100 1 0.417000 22.768000 4.592000 75.749001 # HT TIP3
301 101 2 -0.834000 7.800000 17.659000 78.183998 # OT TIP3
302 101 1 0.417000 8.143000 17.649000 77.327003 # HT TIP3
303 101 1 0.417000 8.109000 18.502001 78.568001 # HT TIP3
304 102 2 -0.834000 15.603000 19.110001 64.212997 # OT TIP3
305 102 1 0.417000 15.275000 18.655001 64.962997 # HT TIP3
306 102 1 0.417000 14.842000 19.606001 63.877998 # HT TIP3
307 103 2 -0.834000 5.753000 21.139000 66.474998 # OT TIP3
308 103 1 0.417000 5.769000 22.052999 66.846001 # HT TIP3
309 103 1 0.417000 6.663000 21.031000 66.200996 # HT TIP3
310 104 2 -0.834000 2.615000 18.355000 75.355003 # OT TIP3
311 104 1 0.417000 2.225000 17.480000 75.419998 # HT TIP3
312 104 1 0.417000 1.859000 18.983999 75.051003 # HT TIP3
313 105 2 -0.834000 12.087000 16.787001 81.150002 # OT TIP3
314 105 1 0.417000 12.221000 15.877000 80.697998 # HT TIP3
315 105 1 0.417000 12.936000 16.940001 81.591003 # HT TIP3
316 106 2 -0.834000 10.784000 19.059999 77.439003 # OT TIP3
317 106 1 0.417000 11.576000 19.166000 76.921997 # HT TIP3
318 106 1 0.417000 10.941000 19.584000 78.234001 # HT TIP3
319 107 2 -0.834000 3.369000 20.620001 71.837997 # OT TIP3
320 107 1 0.417000 3.051000 20.424999 72.700996 # HT TIP3
321 107 1 0.417000 4.347000 20.716999 71.922997 # HT TIP3
322 108 2 -0.834000 16.158001 16.218000 62.452999 # OT TIP3
323 108 1 0.417000 16.285999 17.122999 62.160000 # HT TIP3
324 108 1 0.417000 15.175000 16.219000 62.587002 # HT TIP3
325 109 2 -0.834000 8.929000 10.601000 65.321999 # OT TIP3
326 109 1 0.417000 8.364000 11.340000 64.912003 # HT TIP3
327 109 1 0.417000 8.318000 10.011000 65.820000 # HT TIP3
328 110 2 -0.834000 11.209000 27.934999 62.973000 # OT TIP3
329 110 1 0.417000 10.397000 28.288000 62.520000 # HT TIP3
330 110 1 0.417000 11.523000 28.672001 63.624001 # HT TIP3
331 111 2 -0.834000 8.125000 27.007999 77.205002 # OT TIP3
332 111 1 0.417000 8.305000 27.912001 76.994003 # HT TIP3
333 111 1 0.417000 7.285000 26.889000 76.734001 # HT TIP3
334 112 2 -0.834000 12.585000 24.121000 80.455002 # OT TIP3
335 112 1 0.417000 13.413000 24.205000 80.982002 # HT TIP3
336 112 1 0.417000 11.816000 24.266001 81.095001 # HT TIP3
337 113 2 -0.834000 14.755000 26.794001 70.519997 # OT TIP3
338 113 1 0.417000 13.826000 26.669001 70.766998 # HT TIP3
339 113 1 0.417000 15.148000 26.750999 71.374001 # HT TIP3
340 114 2 -0.834000 7.703000 27.593000 65.848000 # OT TIP3
341 114 1 0.417000 8.407000 28.207001 65.761002 # HT TIP3
342 114 1 0.417000 7.716000 27.068001 65.013000 # HT TIP3
343 115 2 -0.834000 22.371000 18.885000 66.875000 # OT TIP3
344 115 1 0.417000 21.731001 18.190001 67.200996 # HT TIP3
345 115 1 0.417000 23.157000 18.771000 67.378998 # HT TIP3
346 116 2 -0.834000 22.052000 15.490000 65.292000 # OT TIP3
347 116 1 0.417000 21.664000 15.025000 66.009003 # HT TIP3
348 116 1 0.417000 22.791000 16.006001 65.747002 # HT TIP3
349 117 2 -0.834000 4.320000 2.439000 64.693001 # OT TIP3
350 117 1 0.417000 4.018000 2.263000 63.794998 # HT TIP3
351 117 1 0.417000 5.218000 2.737000 64.532997 # HT TIP3
352 118 2 -0.834000 17.096001 9.405000 71.627998 # OT TIP3
353 118 1 0.417000 17.084999 10.390000 71.714996 # HT TIP3
354 118 1 0.417000 17.077000 9.348000 70.621002 # HT TIP3
355 119 2 -0.834000 9.378000 23.836000 75.073997 # OT TIP3
356 119 1 0.417000 10.127000 24.084999 74.477997 # HT TIP3
357 119 1 0.417000 8.806000 24.652000 75.112000 # HT TIP3
358 120 2 -0.834000 19.479000 4.089000 62.377998 # OT TIP3
359 120 1 0.417000 18.535999 4.208000 62.574001 # HT TIP3
360 120 1 0.417000 19.601999 3.140000 62.196999 # HT TIP3
361 121 2 -0.834000 16.528999 6.982000 69.518997 # OT TIP3
362 121 1 0.417000 17.398001 6.632000 69.811996 # HT TIP3
363 121 1 0.417000 16.223000 6.333000 68.866997 # HT TIP3
364 122 2 -0.834000 5.539000 3.605000 69.294998 # OT TIP3
365 122 1 0.417000 6.460000 3.702000 69.123001 # HT TIP3
366 122 1 0.417000 5.434000 2.616000 69.362999 # HT TIP3
367 123 2 -0.834000 21.028000 8.080000 70.022003 # OT TIP3
368 123 1 0.417000 21.674999 8.715000 70.082001 # HT TIP3
369 123 1 0.417000 20.385000 8.573000 69.527000 # HT TIP3
370 124 2 -0.834000 23.010000 12.028000 79.446999 # OT TIP3
371 124 1 0.417000 23.719000 12.061000 78.700996 # HT TIP3
372 124 1 0.417000 23.590000 12.140000 80.220001 # HT TIP3
373 125 2 -0.834000 19.350000 7.978000 78.614998 # OT TIP3
374 125 1 0.417000 19.415001 8.291000 77.702003 # HT TIP3
375 125 1 0.417000 18.398001 8.159000 78.783997 # HT TIP3
376 126 2 -0.834000 9.883000 22.580999 66.760002 # OT TIP3
377 126 1 0.417000 9.705000 23.232000 67.445999 # HT TIP3
378 126 1 0.417000 10.357000 23.007999 66.077003 # HT TIP3
379 127 2 -0.834000 20.399000 13.364000 62.980000 # OT TIP3
380 127 1 0.417000 20.715000 12.499000 62.598000 # HT TIP3
381 127 1 0.417000 20.091000 13.059000 63.846001 # HT TIP3
382 128 2 -0.834000 25.165001 7.819000 66.775002 # OT TIP3
383 128 1 0.417000 24.867001 7.610000 65.873001 # HT TIP3
384 128 1 0.417000 24.362000 8.177000 67.250999 # HT TIP3
385 129 2 -0.834000 13.793000 14.364000 73.167999 # OT TIP3
386 129 1 0.417000 13.787000 14.548000 72.223000 # HT TIP3
387 129 1 0.417000 12.995000 14.794000 73.399002 # HT TIP3
388 130 2 -0.834000 7.667000 8.547000 70.646004 # OT TIP3
389 130 1 0.417000 7.103000 7.975000 71.295998 # HT TIP3
390 130 1 0.417000 8.558000 8.292000 71.045998 # HT TIP3
391 131 2 -0.834000 1.182000 24.403000 82.361000 # OT TIP3
392 131 1 0.417000 1.301000 24.584999 83.346001 # HT TIP3
393 131 1 0.417000 2.001000 23.867001 82.220001 # HT TIP3
394 132 2 -0.834000 11.129000 18.485001 67.550003 # OT TIP3
395 132 1 0.417000 10.231000 18.466999 67.919998 # HT TIP3
396 132 1 0.417000 11.108000 17.702000 66.985001 # HT TIP3
397 133 2 -0.834000 23.412001 8.606000 73.665001 # OT TIP3
398 133 1 0.417000 22.851999 8.980000 74.388000 # HT TIP3
399 133 1 0.417000 22.958000 7.769000 73.492996 # HT TIP3
400 134 2 -0.834000 5.654000 6.717000 66.023003 # OT TIP3
401 134 1 0.417000 6.059000 6.126000 65.394997 # HT TIP3
402 134 1 0.417000 6.409000 6.785000 66.634003 # HT TIP3
403 135 2 -0.834000 13.336000 15.905000 70.349998 # OT TIP3
404 135 1 0.417000 12.849000 16.587999 69.883003 # HT TIP3
405 135 1 0.417000 12.568000 15.375000 70.769997 # HT TIP3
406 136 2 -0.834000 6.488000 15.255000 74.211998 # OT TIP3
407 136 1 0.417000 7.279000 15.126000 74.709000 # HT TIP3
408 136 1 0.417000 5.864000 14.991000 74.877998 # HT TIP3
409 137 2 -0.834000 4.686000 9.353000 64.401001 # OT TIP3
410 137 1 0.417000 5.494000 8.930000 64.084000 # HT TIP3
411 137 1 0.417000 4.041000 8.727000 64.196999 # HT TIP3
412 138 2 -0.834000 16.004999 15.526000 80.133003 # OT TIP3
413 138 1 0.417000 16.742001 14.941000 80.237999 # HT TIP3
414 138 1 0.417000 15.746000 15.453000 79.188004 # HT TIP3
415 139 2 -0.834000 16.427000 14.899000 74.417999 # OT TIP3
416 139 1 0.417000 16.598000 15.703000 74.915001 # HT TIP3
417 139 1 0.417000 15.569000 15.032000 73.994003 # HT TIP3
418 140 2 -0.834000 16.117001 17.341999 76.320000 # OT TIP3
419 140 1 0.417000 15.190000 17.658001 76.235001 # HT TIP3
420 140 1 0.417000 16.725000 18.080000 75.949997 # HT TIP3
421 141 2 -0.834000 14.263000 24.513000 68.325996 # OT TIP3
422 141 1 0.417000 15.083000 24.900000 68.689003 # HT TIP3
423 141 1 0.417000 14.669000 23.802999 67.738998 # HT TIP3
424 142 2 -0.834000 5.289000 26.674999 62.474998 # OT TIP3
425 142 1 0.417000 6.014000 26.297001 62.909000 # HT TIP3
426 142 1 0.417000 4.628000 26.027000 62.513000 # HT TIP3
427 143 2 -0.834000 11.030000 12.441000 64.433998 # OT TIP3
428 143 1 0.417000 10.274000 11.827000 64.421997 # HT TIP3
429 143 1 0.417000 11.533000 12.362000 63.660999 # HT TIP3
430 144 2 -0.834000 11.550000 10.544000 72.315002 # OT TIP3
431 144 1 0.417000 11.055000 11.343000 72.396004 # HT TIP3
432 144 1 0.417000 12.460000 10.846000 72.336998 # HT TIP3
433 145 2 -0.834000 18.195999 19.038000 74.777000 # OT TIP3
434 145 1 0.417000 18.492001 18.084999 74.750000 # HT TIP3
435 145 1 0.417000 17.868000 19.082001 73.855003 # HT TIP3
436 146 2 -0.834000 3.005000 18.796000 82.122002 # OT TIP3
437 146 1 0.417000 3.773000 18.325001 82.598000 # HT TIP3
438 146 1 0.417000 3.173000 19.757999 82.264999 # HT TIP3
439 147 2 -0.834000 14.553000 16.240000 82.434998 # OT TIP3
440 147 1 0.417000 15.103000 15.959000 81.725998 # HT TIP3
441 147 1 0.417000 14.422000 15.470000 82.978996 # HT TIP3
442 148 2 -0.834000 12.456000 3.350000 80.584999 # OT TIP3
443 148 1 0.417000 11.731000 3.931000 80.730003 # HT TIP3
444 148 1 0.417000 12.546000 2.862000 81.401001 # HT TIP3
445 149 2 -0.834000 14.068000 3.914000 71.149002 # OT TIP3
446 149 1 0.417000 13.803000 3.473000 70.294998 # HT TIP3
447 149 1 0.417000 15.010000 3.849000 71.112000 # HT TIP3
448 150 2 -0.834000 6.450000 10.067000 66.336998 # OT TIP3
449 150 1 0.417000 5.722000 9.840000 65.710999 # HT TIP3
450 150 1 0.417000 5.939000 9.770000 67.116997 # HT TIP3
451 151 2 -0.834000 10.813000 26.618999 75.730003 # OT TIP3
452 151 1 0.417000 11.656000 26.875999 76.164001 # HT TIP3
453 151 1 0.417000 10.196000 27.145000 76.275002 # HT TIP3
454 152 2 -0.834000 4.297000 19.771000 78.303001 # OT TIP3
455 152 1 0.417000 4.913000 20.271999 78.824997 # HT TIP3
456 152 1 0.417000 4.616000 19.934999 77.407997 # HT TIP3
457 153 2 -0.834000 7.597000 16.954000 82.462997 # OT TIP3
458 153 1 0.417000 8.157000 16.160000 82.199997 # HT TIP3
459 153 1 0.417000 8.205000 17.451000 83.021004 # HT TIP3
460 154 2 -0.834000 2.443000 4.980000 79.626999 # OT TIP3
461 154 1 0.417000 2.536000 4.050000 79.247002 # HT TIP3
462 154 1 0.417000 1.589000 5.282000 79.255997 # HT TIP3
463 155 2 -0.834000 21.254999 26.983000 64.128998 # OT TIP3
464 155 1 0.417000 21.472000 27.410999 64.954002 # HT TIP3
465 155 1 0.417000 20.868000 26.098000 64.325996 # HT TIP3
466 156 2 -0.834000 4.248000 23.875999 64.700996 # OT TIP3
467 156 1 0.417000 3.662000 23.334000 65.248001 # HT TIP3
468 156 1 0.417000 5.106000 23.410000 64.780998 # HT TIP3
469 157 2 -0.834000 9.943000 20.607000 70.392998 # OT TIP3
470 157 1 0.417000 10.890000 20.666000 70.174004 # HT TIP3
471 157 1 0.417000 9.551000 20.202000 69.585999 # HT TIP3
472 158 2 -0.834000 8.534000 24.313000 83.010002 # OT TIP3
473 158 1 0.417000 8.309000 23.777000 83.737999 # HT TIP3
474 158 1 0.417000 7.697000 24.403000 82.531998 # HT TIP3
475 159 2 -0.834000 14.340000 14.560000 77.476997 # OT TIP3
476 159 1 0.417000 14.400000 14.568000 76.542000 # HT TIP3
477 159 1 0.417000 13.852000 15.406000 77.633003 # HT TIP3
478 160 2 -0.834000 9.344000 8.845000 81.429001 # OT TIP3
479 160 1 0.417000 9.479000 9.292000 82.236000 # HT TIP3
480 160 1 0.417000 10.102000 9.059000 80.900002 # HT TIP3
481 161 2 -0.834000 22.892000 10.490000 63.953999 # OT TIP3
482 161 1 0.417000 23.662001 9.965000 64.007004 # HT TIP3
483 161 1 0.417000 22.278999 9.910000 63.557999 # HT TIP3
484 162 2 -0.834000 7.901000 22.556999 70.325996 # OT TIP3
485 162 1 0.417000 8.410000 21.743999 70.384003 # HT TIP3
486 162 1 0.417000 8.474000 23.077000 69.759003 # HT TIP3
487 163 2 -0.834000 17.261000 22.789000 83.152000 # OT TIP3
488 163 1 0.417000 17.684000 21.872999 82.877998 # HT TIP3
489 163 1 0.417000 17.788000 23.010000 83.873001 # HT TIP3
490 164 2 -0.834000 6.596000 24.879999 79.762001 # OT TIP3
491 164 1 0.417000 6.727000 25.761999 80.184998 # HT TIP3
492 164 1 0.417000 7.504000 24.604000 79.431000 # HT TIP3
493 165 2 -0.834000 15.403000 8.815000 76.211998 # OT TIP3
494 165 1 0.417000 14.532000 9.206000 75.911003 # HT TIP3
495 165 1 0.417000 15.885000 8.681000 75.373001 # HT TIP3
496 166 2 -0.834000 7.857000 12.138000 67.829002 # OT TIP3
497 166 1 0.417000 7.107000 12.750000 67.800003 # HT TIP3
498 166 1 0.417000 7.480000 11.387000 67.352997 # HT TIP3
499 167 2 -0.834000 12.757000 27.768999 81.348000 # OT TIP3
500 167 1 0.417000 12.464000 28.496000 81.874001 # HT TIP3
501 167 1 0.417000 11.986000 27.221001 81.287003 # HT TIP3
502 168 2 -0.834000 11.309000 22.500000 72.481003 # OT TIP3
503 168 1 0.417000 12.014000 21.927999 72.184998 # HT TIP3
504 168 1 0.417000 10.595000 21.961000 72.182999 # HT TIP3
505 169 2 -0.834000 17.688999 27.229000 69.289001 # OT TIP3
506 169 1 0.417000 18.191999 26.791000 70.000000 # HT TIP3
507 169 1 0.417000 17.002001 27.674000 69.851997 # HT TIP3
508 170 2 -0.834000 14.235000 23.943001 76.633003 # OT TIP3
509 170 1 0.417000 13.613000 23.525000 77.194000 # HT TIP3
510 170 1 0.417000 15.027000 23.981001 77.180000 # HT TIP3
511 171 2 -0.834000 7.818000 21.066000 81.150002 # OT TIP3