
    1584 atoms
    2325 bonds
    4650 angles
    9361 dihedrals

       3 atom types
       3 bond types
       3 angle types
       3 dihedral types

  0.0000 29.8200 xlo xhi
  0.0000 29.4720 ylo yhi
-20.0000 120.0000 zlo zhi

 Masses

       1 12.01070
       2 16
       3  1.00794

 Atoms

       1   1   1      0.0000     27.0451     15.4134     61.4277
       2   1   1      0.0000     26.4235     16.6350     61.5073
       3   1   1      0.0000     25.0511     19.0785     61.3709
       4   1   1      0.0000     24.3707     20.4920     61.1927
       5   1   1      0.0000     21.6077     22.0417     61.2584
       6   1   1      0.0000     20.0613     21.6742     61.2815
       7   1   1      0.2000     19.2763     22.3062     60.0850
       8   1   1      0.2000     17.8183     22.1820     60.2244
       9   1   1      0.0000     17.2674     22.5248     61.3507
      10   1   1      0.0000     15.8625     21.6315     61.1986
      11   1   1      0.0000     13.5120     20.0991     61.2714
      12   1   1      0.0000     12.5255     19.0868     61.7018
      13   1   1      0.0000     11.1272     17.6233     61.7385
      14   1   1      0.0000     10.2736     16.4622     61.3907
      15   1   1      0.0000      9.9687     13.7533     61.2158
      16   1   1      0.0000      9.3789     12.3773     61.1678
      17   1   1      0.0000     10.7576      9.6614     60.8226
      18   1   1      0.0000     11.5422      8.2250     60.9001
      19   1   1      0.0000     13.8172      6.3597     61.1492
      20   1   1      0.0000     14.6590      5.0900     61.2833
      21   1   1      0.0000     17.7198      4.3431     61.1031
      22   1   1      0.0000     19.2873      3.8342     61.4142
      23   1   1      0.0000     22.1698      4.8452     61.4554
      24   1   1      0.0000     22.6518      6.1317     61.4142
      25   1   1      0.2000     23.5410      6.1147     60.0917
      26   1   1      0.0000     24.7633      7.4856     61.5490
      27   1   1      0.0000     25.1264      8.9876     61.2715
      28   1   1      0.0000     26.2368     11.2917     61.4998
      29   1   1      0.0000     26.8889     12.5531     61.1531
      30   1   1      0.0000     27.2561     13.3687     62.5084
      31   1   1      0.0000     27.0868     14.7331     62.5538
      32   1   1      0.0000     26.9053     15.5206     63.7359
      33   1   1      0.0000     26.3427     16.8025     63.7911
      34   1   1      0.0000     25.9225     17.3114     62.6134
      35   1   1      0.0000     25.7737     18.8624     62.5955
      36   1   1      0.0000     24.8072     19.2023     63.7426
      37   1   1      0.0000     24.2303     20.6117     63.6620
      38   1   1      0.0000     23.2993     20.5270     62.3431
      39   1   1      0.0000     22.4698     21.7481     62.3910
      40   1   1      0.0000     21.5258     21.7533     63.6378
      41   1   1      0.0000     20.1611     22.1325     63.6253
      42   1   1      0.0000     19.5206     22.5864     62.4597
      43   1   1      0.0000     18.0529     22.2697     62.3816
      44   1   1      0.0000     17.3387     22.2155     63.6053
      45   1   1      0.0000     15.9540     21.9171     63.5984
      46   1   1      0.0000     15.0745     21.9937     62.3923
      47   1   1      0.0000     13.8281     20.9401     62.5869
      48   1   1      0.0000     14.0281     20.0734     63.7875
      49   1   1      0.0000     12.8758     19.1716     63.8386
      50   1   1      0.0000     13.1180     18.2155     62.7208
      51   1   1      0.0000     12.1810     17.1494     62.6891
      52   1   1      0.0000     11.2919     17.1557     63.8670
      53   1   1      0.0000     10.7706     15.8242     63.7770
      54   1   1      0.0000      9.7560     15.8098     62.6973
      55   1   1      0.0000      9.2529     14.2627     62.4411
      56   1   1      0.0000      9.6932     13.3948     63.6291
      57   1   1      0.0000      9.8224     11.9843     63.6421
      58   1   1      0.0000      9.7020     11.2770     62.3079
      59   1   1      0.0000     10.7507     10.2401     62.2849
      60   1   1      0.0000     10.3808      9.2247     63.5106
      61   1   1      0.0000     11.3673      8.0410     63.6024
      62   1   1      0.0000     12.2420      7.9975     62.3342
      63   1   1      0.0000     13.0055      6.6220     62.4008
      64   1   1      0.0000     13.8957      6.5069     63.6827
      65   1   1      0.0000     14.6970      5.1745     63.6846
      66   1   1      0.0000     15.6538      5.2604     62.3844
      67   1   1      0.0000     16.8664      4.2677     62.4664
      68   1   1      0.0000     17.6527      4.9291     63.6447
      69   1   1      0.0000     19.0275      4.2568     63.7614
      70   1   1      0.0000     19.8095      4.7633     62.4496
      71   1   1      0.0000     21.2282      4.4701     62.6054
      72   1   1      0.0000     21.7039      5.2956     63.7805
      73   1   1      0.0000     22.9769      5.9167     63.7839
      74   1   1      0.0000     23.5952      6.1566     62.6108
      75   1   1      0.0000     24.0166      7.5226     62.6192
      76   1   1      0.0000     25.1447      7.7262     63.7831
      77   1   1      0.0000     25.9833      8.8677     63.7790
      78   1   1      0.0000     25.5463      9.6954     62.7850
      79   1   1      0.0000     26.7147     10.6844     62.6592
      80   1   1      0.0000     27.0619     11.4773     63.7639
      81   1   1      0.0000     27.2740     12.8777     63.7533
      82   1   1      0.0000     27.2865     13.5968     64.9753
      83   1   1      0.0000     27.1573     15.0073     64.9623
      84   1   1      0.0000     26.9996     15.7107     66.1833
      85   1   1      0.0000     26.5366     17.0493     66.1686
      86   1   1      0.0000     26.1167     17.5661     64.9565
      87   1   1      0.0000     25.3467     18.7583     64.9470
      88   1   1      0.0000     25.0017     19.4192     66.1378
      89   1   1      0.0000     23.9696     20.3892     66.1224
      90   1   1      0.0000     23.4068     20.7983     64.8869
      91   1   1      0.0000     22.1725     21.4931     64.8726
      92   1   1      0.0000     21.5091     21.7744     66.0937
      93   1   1      0.0000     20.1444     22.1536     66.0812
      94   1   1      0.0000     19.4520     22.2492     64.8475
      95   1   1      0.0000     18.0362     22.2908     64.8375
      96   1   1      0.0000     17.3220     22.2366     66.0612
      97   1   1      0.0000     15.9373     21.9382     66.0543
      98   1   1      0.0000     15.2758     21.6959     64.8238
      99   1   1      0.0000     14.0028     21.0749     64.8205
     100   1   1      0.0000     13.3995     20.7001     66.0477
     101   1   1      0.0000     12.1831     19.8155     65.9674
     102   1   1      0.0000     12.7997     18.5885     65.2050
     103   1   1      0.0000     11.9359     17.3381     65.1987
     104   1   1      0.0000     10.6403     17.5168     66.0563
     105   1   1      0.0000     10.0992     16.2077     66.0638
     106   1   1      0.0000      9.9177     15.5143     64.8405
     107   1   1      0.0000      9.7057     14.1138     64.8511
     108   1   1      0.0000      9.6764     13.4159     66.0850
     109   1   1      0.0000      9.8057     12.0054     66.0980
     110   1   1      0.0000      9.9633     11.3020     64.8770
     111   1   1      0.0000     10.4264      9.9634     64.8916
     112   1   1      0.0000     10.7288      9.3369     66.1272
     113   1   1      0.0000     11.4987      8.1481     66.1427
     114   1   1      0.0000     12.3532      8.0119     64.9248
     115   1   1      0.0000     12.9933      6.6234     64.9379
     116   1   1      0.0000     13.5562      6.2144     66.1733
     117   1   1      0.0000     14.7904      5.5195     66.1877
     118   1   1      0.0000     15.4538      5.2383     64.9665
     119   1   1      0.0000     16.8185      4.8590     64.9791
     120   1   1      0.0000     17.5110      4.7635     66.2127
     121   1   1      0.0000     18.9268      4.7219     66.2227
     122   1   1      0.0000     19.6410      4.7760     64.9990
     123   1   1      0.0000     21.0257      5.0744     65.0059
     124   1   1      0.0000     21.6871      5.3167     66.2364
     125   1   1      0.0000     22.9602      5.9378     66.2398
     126   1   1      0.0000     23.5635      6.3126     65.0126
     127   1   1      0.0000     24.6509      7.2202     65.0121
     128   1   1      0.0000     25.1280      7.7473     66.2390
     129   1   1      0.0000     25.9666      8.8888     66.2349
     130   1   1      0.0000     26.3227      9.4959     65.0040
     131   1   1      0.0000     26.8638     10.8049     64.9964
     132   1   1      0.0000     27.0452     11.4984     66.2198
     133   1   1      0.0000     27.2573     12.8989     66.2092
     134   1   1      0.0000     27.2698     13.6179     67.4312
     135   1   1      0.0000     27.1406     15.0284     67.4182
     136   1   1      0.0000     26.9829     15.7318     68.6392
     137   1   1      0.0000     26.5199     17.0704     68.6245
     138   1   1      0.0000     26.2175     17.6968     67.3889
     139   1   1      0.0000     25.4475     18.8857     67.3735
     140   1   1      0.0000     24.9850     19.4403     68.5937
     141   1   1      0.0000     23.9529     20.4104     68.5783
     142   1   1      0.0000     23.3900     20.8194     67.3428
     143   1   1      0.0000     22.1558     21.5142     67.3285
     144   1   1      0.0000     21.4924     21.7955     68.5496
     145   1   1      0.0000     20.1277     22.1748     68.5371
     146   1   1      0.0000     19.4352     22.2703     67.3034
     147   1   1      0.0000     18.0194     22.3119     67.2934
     148   1   1      0.0000     17.3052     22.2578     68.5171
     149   1   1      0.0000     15.9206     21.9594     68.5102
     150   1   1      0.0000     15.2591     21.7171     67.2797
     151   1   1      0.0000     13.9860     21.0960     67.2764
     152   1   1      0.0000     13.3827     20.7212     68.5036
     153   1   1      0.0000     12.2953     19.8135     68.5040
     154   1   1      0.0000     11.8182     19.2865     67.2772
     155   1   1      0.0000     10.9796     18.1450     67.2813
     156   1   1      0.0000     10.6235     17.5379     68.5122
     157   1   1      0.0000     10.0825     16.2288     68.5197
     158   1   1      0.0000      9.9010     15.5354     67.2964
     159   1   1      0.0000      9.6889     14.1349     67.3070
     160   1   1      0.0000      9.6597     13.4370     68.5409
     161   1   1      0.0000      9.7889     12.0265     68.5539
     162   1   1      0.0000      9.9466     11.3231     67.3329
     163   1   1      0.0000     10.4096      9.9845     67.3475
     164   1   1      0.0000     10.7120      9.3581     68.5831
     165   1   1      0.0000     11.4820      8.1692     68.5986
     166   1   1      0.0000     11.9445      7.6145     67.3784
     167   1   1      0.0000     12.9766      6.6445     67.3938
     168   1   1      0.0000     13.5395      6.2355     68.6292
     169   1   1      0.0000     14.7737      5.5407     68.6436
     170   1   1      0.0000     15.4371      5.2594     67.4224
     171   1   1      0.0000     16.8018      4.8801     67.4350
     172   1   1      0.0000     17.4942      4.7846     68.6686
     173   1   1      0.0000     18.9101      4.7430     68.6786
     174   1   1      0.0000     19.6243      4.7971     67.4549
     175   1   1      0.0000     21.0089      5.0955     67.4618
     176   1   1      0.0000     21.6704      5.3378     68.6923
     177   1   1      0.0000     22.9434      5.9589     68.6957
     178   1   1      0.0000     23.5467      6.3337     67.4684
     179   1   1      0.0000     24.6342      7.2414     67.4680
     180   1   1      0.0000     25.1112      7.7684     68.6949
     181   1   1      0.0000     25.9499      8.9099     68.6908
     182   1   1      0.0000     26.3060      9.5170     67.4599
     183   1   1      0.0000     26.8470     10.8260     67.4523
     184   1   1      0.0000     27.0285     11.5195     68.6757
     185   1   1      0.0000     27.2406     12.9200     68.6651
     186   1   1      0.0000     27.2531     13.6390     69.8871
     187   1   1      0.0000     27.1238     15.0495     69.8741
     188   1   1      0.0000     26.9662     15.7529     71.0951
     189   1   1      0.0000     26.5031     17.0915     71.0804
     190   1   1      0.0000     26.2007     17.7179     69.8448
     191   1   1      0.0000     25.4308     18.9068     69.8294
     192   1   1      0.0000     24.9682     19.4615     71.0496
     193   1   1      0.0000     23.9361     20.4315     71.0342
     194   1   1      0.0000     23.3733     20.8405     69.7987
     195   1   1      0.0000     22.1390     21.5354     69.7843
     196   1   1      0.0000     21.4756     21.8166     71.0055
     197   1   1      0.0000     20.1109     22.1959     70.9930
     198   1   1      0.0000     19.4185     22.2914     69.7593
     199   1   1      0.0000     18.0027     22.3330     69.7493
     200   1   1      0.0000     17.2885     22.2789     70.9730
     201   1   1      0.0000     15.9038     21.9805     70.9661
     202   1   1      0.0000     15.2423     21.7382     69.7356
     203   1   1      0.0000     13.9693     21.1171     69.7323
     204   1   1      0.0000     13.1440     21.1841     70.9084
     205   1   1      0.0000     12.1119     19.9954     70.8363
     206   1   1      0.0000     12.2626     18.9885     69.6605
     207   1   1      0.0000     10.9629     18.1661     69.7372
     208   1   1      0.0000     11.1850     17.2316     70.9081
     209   1   1      0.0000     10.0657     16.2500     70.9756
     210   1   1      0.0000      9.8843     15.5565     69.7523
     211   1   1      0.0000      9.6722     14.1560     69.7629
     212   1   1      0.0000      9.6430     13.4581     70.9968
     213   1   1      0.0000      9.7722     12.0476     71.0098
     214   1   1      0.0000      9.9298     11.3442     69.7888
     215   1   1      0.0000     10.3929     10.0056     69.8035
     216   1   1      0.0000     10.6953      9.3792     71.0390
     217   1   1      0.0000     11.4652      8.1903     71.0545
     218   1   1      0.0000     11.9278      7.6357     69.8343
     219   1   1      0.0000     12.9599      6.6656     69.8497
     220   1   1      0.0000     13.5227      6.2566     71.0851
     221   1   1      0.0000     14.7570      5.5618     71.0995
     222   1   1      0.0000     15.4204      5.2805     69.8783
     223   1   1      0.0000     16.7851      4.9013     69.8909
     224   1   1      0.0000     17.4775      4.8057     71.1245
     225   1   1      0.0000     18.8933      4.7641     71.1345
     226   1   1      0.0000     19.6075      4.8182     69.9108
     227   1   1      0.0000     20.9922      5.1166     69.9177
     228   1   1      0.0000     21.6537      5.3589     71.1482
     229   1   1      0.0000     22.9267      5.9800     71.1516
     230   1   1      0.0000     23.5300      6.3548     69.9243
     231   1   1      0.0000     24.6174      7.2625     69.9240
     232   1   1      0.0000     25.0760      7.8074     71.0909
     233   1   1      0.0000     25.9331      8.9310     71.1467
     234   1   1      0.0000     26.2892      9.5381     69.9158
     235   1   1      0.0000     26.8303     10.8472     69.9082
     236   1   1      0.0000     27.0117     11.5406     71.1316
     237   1   1      0.0000     27.2238     12.9411     71.1210
     238   1   1      0.0000     27.1315     13.5664     72.2911
     239   1   1      0.0000     27.0076     14.9881     72.2736
     240   1   1      0.0000     26.3736     15.5761     73.4821
     241   1   1      0.0000     26.7712     17.1663     73.5110
     242   1   1      0.0000     26.1840     17.7391     72.3008
     243   1   1      0.0000     25.4141     18.9279     72.2853
     244   1   1      0.0000     24.6048     19.1281     73.4441
     245   1   1      0.0000     24.0060     20.6071     73.4672
     246   1   1      0.0000     23.3566     20.8616     72.2546
     247   1   1      0.0000     22.1223     21.5565     72.2403
     248   1   1      0.0000     21.3894     21.8774     73.3937
     249   1   1      0.0000     20.0643     22.2965     73.4355
     250   1   1      0.0000     19.4018     22.3125     72.2152
     251   1   1      0.0000     17.9860     22.3541     72.2052
     252   1   1      0.0000     17.3109     22.1865     73.3437
     253   1   1      0.0000     16.1612     21.2540     73.2373
     254   1   1      0.0000     15.2256     21.7593     72.1915
     255   1   1      0.0000     14.0625     20.8468     72.0109
     256   1   1      0.0000     13.2643     21.0207     73.2098
     257   1   1      0.0000     12.0805     20.1099     73.2415
     258   1   1      0.0000     12.1897     19.1740     72.0839
     259   1   1      0.0000     11.1037     18.1704     72.0871
     260   1   1      0.0000     11.1945     17.4258     73.2988
     261   1   1      0.0000     10.0168     16.4768     73.3858
     262   1   1      0.0000      9.8675     15.5776     72.2082
     263   1   1      0.0000      9.6833     14.2006     72.2055
     264   1   1      0.0000     10.1489     13.6300     73.4628
     265   1   1      0.0000      9.8028     12.1588     73.4395
     266   1   1      0.0000     10.4812     11.5156     72.2139
     267   1   1      0.0000     10.1964     10.0213     72.3061
     268   1   1      0.0000     11.1072      9.6187     73.4369
     269   1   1      0.0000     11.1415      8.0143     73.5012
     270   1   1      0.0000     11.9111      7.6568     72.2902
     271   1   1      0.0000     12.9431      6.6868     72.3056
     272   1   1      0.0000     13.7911      6.6713     73.6690
     273   1   1      0.0000     14.4396      5.4014     73.6115
     274   1   1      0.0000     15.3511      5.0742     72.3638
     275   1   1      0.0000     16.7826      5.5936     72.3228
     276   1   1      0.0000     17.4592      5.1072     73.5238
     277   1   1      0.0000     18.9056      5.5286     73.4703
     278   1   1      0.0000     19.5908      4.8394     72.3667
     279   1   1      0.0000     20.9755      5.1378     72.3736
     280   1   1      0.0000     21.7047      5.4365     73.5164
     281   1   1      0.0000     22.9435      6.0336     73.5260
     282   1   1      0.0000     23.5133      6.3759     72.3802
     283   1   1      0.0000     24.5482      7.3037     72.2364
     284   1   1      0.0000     25.1324      7.8248     73.2897
     285   1   1      0.0000     25.9776      8.8275     73.3516
     286   1   1      0.0000     26.2711      9.5415     72.2671
     287   1   1      0.0000     26.8045     10.7904     72.2805
     288   1   1      0.0000     26.5194     11.4935     73.4601
     289   1   1      0.0000     27.3454     12.8052     73.5123
     290   1   1      0.0000     26.6510     13.2720     74.7607
     291   1   1      0.0000     26.6997     14.8688     74.9384
     292   1   1      0.0000     26.1212     17.4535     74.7645
     293   1   1      0.0000     25.3761     18.8541     74.8400
     294   1   1      0.0000     23.1297     20.3549     74.6606
     295   1   1      0.0000     21.7349     21.2138     74.6928
     296   1   1      0.0000     19.2942     22.6595     74.5624
     297   1   1      0.0000     17.9743     22.4050     74.5052
     298   1   1      0.2000     17.1431     22.4511     75.7144
     299   1   1      0.0000     15.3670     21.6401     74.2325
     300   1   1      0.0000     14.0868     20.7219     74.3178
     301   1   1      0.2000     13.3264     21.0321     75.6193
     302   1   1      0.2000     12.1400     20.3250     75.9327
     303   1   1      0.0000     12.1314     19.3147     74.5723
     304   1   1      0.0000     10.9748     18.4211     74.4070
     305   1   1      0.2000     10.9020     18.0017     75.6458
     306   1   1      0.2000     10.0618     16.9019     75.8240
     307   1   1      0.0000     10.3544     15.7818     74.6683
     308   1   1      0.0000      9.4351     14.6550     74.5372
     309   1   1      0.0000     10.3735     11.8497     74.7509
     310   1   1      0.0000     10.9466     10.3865     74.9033
     311   1   1      0.2000     10.3183      9.5131     75.8707
     312   1   1      0.2000     11.1964      8.3514     75.9957
     313   1   1      0.0000     11.8841      7.8736     74.6833
     314   1   1      0.0000     12.6059      6.5361     74.8053
     315   1   1      0.0000     15.3018      4.9781     74.7801
     316   1   1      0.0000     16.8258      5.5849     74.8555
     317   1   1      0.2000     17.6853      4.7765     75.9853
     318   1   1      0.2000     19.0629      4.9653     75.8127
     319   1   1      0.0000     19.5692      4.7811     74.5299
     320   1   1      0.0000     21.1010      5.1435     74.6453
     321   1   1      0.0000     23.6595      6.7412     74.7292
     322   1   1      0.0000     25.0988      6.9545     74.3967
     323   1   1      0.2000     25.3479      7.4775     75.7406
     324   1   1      0.2000     26.3538      8.2621     75.8282
     325   1   1      0.0000     25.9054      9.4818     74.7682
     326   1   1      0.0000     26.7179     10.6359     74.8390
     327   1   1      0.0000      5.0678     -0.0766     75.9943
     328   1   1      0.0000      6.4877     -0.0612     76.0039
     329   1   1      0.0000      4.3829      1.2094     75.6177
     330   1   1      0.0000      7.1317      1.2172     76.4217
     331   1   1      0.0000      9.3274     -0.0303     76.0230
     332   1   1      0.0000     10.7473     -0.0149     76.0325
     333   1   1      0.0000      8.6042      1.1917     76.0075
     334   1   1      0.0000     11.4440      1.2225     76.0266
     335   1   1      0.0000     13.5871      0.0160     76.0516
     336   1   1      0.0000     15.0070      0.0315     76.0611
     337   1   1      0.0000     12.8638      1.2380     76.0361
     338   1   1      0.0000     15.7036      1.2689     76.0552
     339   1   1      0.0000     17.8467      0.0623     76.0802
     340   1   1      0.0000     19.2666      0.0778     76.0898
     341   1   1      0.0000     17.1235      1.2843     76.0648
     342   1   1      0.0000     19.9633      1.3152     76.0839
     343   1   1      0.0000     22.1064      0.1087     76.1088
     344   1   1      0.0000     23.5263      0.1241     76.1184
     345   1   1      0.0000     21.3832      1.3306     76.0934
     346   1   1      0.0000     24.2229      1.3615     76.1125
     347   1   1      0.0000     26.3660      0.1550     76.1375
     348   1   1      0.0000     27.7859      0.1705     76.1470
     349   1   1      0.0000     25.6428      1.3770     76.1220
     350   1   1      0.0000     28.4826      1.4079     76.1411
     351   1   1      0.0000     30.6257      0.2013     76.1661
     352   1   1      0.0000     32.0456      0.2168     76.1756
     353   1   1      0.0000     29.9025      1.4233     76.1507
     354   1   1      0.0000     32.7422      1.4542     76.1697
     355   1   1      0.0000      5.0957      2.3904     76.2785
     356   1   1      0.0000      6.4525      2.3783     75.6581
     357   1   1      0.0000      4.3179      3.6046     75.9576
     358   1   1      0.0000      7.1267      3.5997     76.0341
     359   1   1      0.0000      9.3008      2.4290     76.0016
     360   1   1      0.0000     10.7207      2.4444     76.0112
     361   1   1      0.0000      8.5226      3.5803     76.0726
     362   1   1      0.0000     11.3740      3.6012     76.0791
     363   1   1      0.0000     13.5605      2.4753     76.0303
     364   1   1      0.0000     14.9804      2.4907     76.0398
     365   1   1      0.0000     12.7637      3.5962     76.0464
     366   1   1      0.0000     15.7059      3.6611     76.5453
     367   1   1      0.0000     17.8201      2.5216     76.0589
     368   1   1      0.0000     19.2400      2.5371     76.0684
     369   1   1      0.0000     17.1352      3.5806     75.6809
     370   1   1      0.0000     19.8516      3.7849     76.6034
     371   1   1      0.0000     22.0798      2.5679     76.0875
     372   1   1      0.0000     23.4997      2.5834     76.0971
     373   1   1      0.0000     21.2911      3.6401     75.9671
     374   1   1      0.0000     24.1963      3.8208     76.0912
     375   1   1      0.0000     26.3394      2.6143     76.1161
     376   1   1      0.0000     27.7593      2.6297     76.1257
     377   1   1      0.0000     25.6162      3.8362     76.1007
     378   1   1      0.0000     28.4560      3.8671     76.1198
     379   1   1      0.0000     30.5991      2.6606     76.1448
     380   1   1      0.0000     32.0190      2.6760     76.1543
     381   1   1      0.0000     29.8759      3.8826     76.1293
     382   1   1      0.0000     32.7156      3.9134     76.1484
     383   1   1      0.0000      5.0146      4.8419     75.9517
     384   1   1      0.0000      6.3934      4.7986     76.0376
     385   1   1      0.0000      4.2913      6.0638     75.9363
     386   1   1      0.0000      7.0412      5.9993     76.1298
     387   1   1      0.0000      9.1796      4.7607     76.1763
     388   1   1      0.0000     10.5807      4.7226     76.1547
     389   1   1      0.0000      8.4157      5.9336     76.2192
     390   1   1      0.0000     11.2578      5.9132     76.9695
     391   1   1      0.0000     13.4704      4.8096     76.6791
     392   1   1      0.2000     14.9353      4.9609     76.1952
     393   1   1      0.2000     12.7528      6.1129     76.3998
     394   1   1      0.2000     21.9064      4.7114     75.9018
     395   1   1      0.0000     23.4967      4.6823     75.5084
     396   1   1      0.2000     23.8653      5.9686     75.9496
     397   1   1      0.0000     26.3308      4.9969     76.0729
     398   1   1      0.0000     27.7327      5.0890     76.1044
     399   1   1      0.0000     25.3136      6.1685     76.4970
     400   1   1      0.0000     28.4294      6.3264     76.0985
     401   1   1      0.0000     30.5725      5.1199     76.1234
     402   1   1      0.0000     31.9924      5.1353     76.1330
     403   1   1      0.0000     29.8492      6.3418     76.1080
     404   1   1      0.0000     32.6890      6.3727     76.1271
     405   1   1      0.0000      4.9880      7.3012     75.9304
     406   1   1      0.0000      6.3413      7.2259     76.0788
     407   1   1      0.0000      4.2647      8.5231     75.9149
     408   1   1      0.0000      6.9707      8.4326     76.1427
     409   1   1      0.0000      9.0413      7.1171     76.2231
     410   1   1      0.0000     10.4414      7.2688     76.8043
     411   1   1      0.0000      8.3200      8.3265     76.1903
     412   1   1      0.0000     27.7650      7.6827     75.3824
     413   1   1      0.0000     28.7507      8.8744     75.1268
     414   1   1      0.0000     30.5459      7.5791     76.1021
     415   1   1      0.0000     31.9658      7.5946     76.1116
     416   1   1      0.0000     29.9275      8.8546     76.0510
     417   1   1      0.0000     32.6624      8.8320     76.1058
     418   1   1      0.0000      4.9614      9.7604     75.9090
     419   1   1      0.0000      6.3046      9.6783     76.0482
     420   1   1      0.0000      4.2381     10.9824     75.8936
     421   1   1      0.0000      6.9283     10.8943     76.0360
     422   1   1      0.0000      8.9352      9.3433     75.3466
     423   1   1      0.0000      8.1462     10.7832     75.1933
     424   1   1      0.2000     28.0301     10.2925     75.4651
     425   1   1      0.0000     28.7334     11.4286     75.1431
     426   1   1      0.0000     30.7578     10.0150     75.3857
     427   1   1      0.0000     31.9392     10.0538     76.0903
     428   1   1      0.0000     30.0063     11.3470     75.7409
     429   1   1      0.0000     32.6358     11.2912     76.0844
     430   1   1      0.0000      4.9348     12.2198     75.8877
     431   1   1      0.0000      6.2722     12.1369     75.9573
     432   1   1      0.0000      4.2115     13.4416     75.8723
     433   1   1      0.0000      6.8966     13.3441     75.9164
     434   1   1      0.2000      9.0209     11.9930     75.5994
     435   1   1      0.0000      8.2041     13.2825     75.3510
     436   1   1      0.2000     27.9586     12.8108     75.5847
     437   1   1      0.0000     28.8087     13.8990     75.1116
     438   1   1      0.0000     30.7725     12.5426     75.2560
     439   1   1      0.0000     31.9126     12.5132     76.0690
     440   1   1      0.0000     30.0291     13.8342     75.6814
     441   1   1      0.0000     32.6092     13.7505     76.0631
     442   1   1      0.0000      4.9082     14.6790     75.8664
     443   1   1      0.0000      6.2498     14.6134     75.9086
     444   1   1      0.0000      4.1849     15.9009     75.8510
     445   1   1      0.0000      6.8371     15.8310     75.9331
     446   1   1      0.2000      9.0616     14.4126     75.7896
     447   1   1      0.0000      8.1961     15.7818     76.2724
     448   1   1      0.2000     28.0027     15.0590     75.5346
     449   1   1      0.0000     28.5121     16.2745     75.1903
     450   1   1      0.0000     30.7197     15.0242     75.2465
     451   1   1      0.0000     31.8860     14.9725     76.0477
     452   1   1      0.0000     29.8733     16.2662     75.7678
     453   1   1      0.0000     32.5826     16.2098     76.0418
     454   1   1      0.0000      4.8816     17.1383     75.8451
     455   1   1      0.0000      6.2169     17.1035     75.9161
     456   1   1      0.0000      4.1583     18.3602     75.8296