
    1546 atoms
    2287 bonds
    4574 angles
    9189 dihedrals

       3 atom types
       3 bond types
       3 angle types
       3 dihedral types

  0.0000 29.8200 xlo xhi
  0.0000 29.4720 ylo yhi
-20.0000 120.0000 zlo zhi

 Masses

       1 12.01070
       2 16
       3  1.00794

 Atoms

       1   1   1      0.2000     23.5866     14.8994     60.2104
       2   1   1      0.0000     23.3185     15.5213     61.4532
       3   1   1      0.0000     22.6169     16.7472     61.4510
       4   1   1      0.2000     22.1965     17.2831     60.2129
       5   1   1      0.0000     20.6156     18.6011     61.2772
       6   1   1      0.0000     19.3197     19.0433     61.2592
       7   1   1      0.2000     16.8498     18.5791     60.0669
       8   1   1      0.0000     16.4603     18.3718     61.4180
       9   1   1      0.0000     15.2617     17.6634     61.4343
      10   1   1      0.2000     14.8919     17.4270     60.1057
      11   1   1      0.0000     13.2919     15.5073     61.2913
      12   1   1      0.0000     13.0619     14.1691     61.3307
      13   1   1      0.2000     13.3334     12.1246     60.1703
      14   1   1      0.0000     13.5762     11.4948     61.3908
      15   1   1      0.0000     14.2685     10.2549     61.3907
      16   1   1      0.0000     16.3116      8.4373     61.2945
      17   1   1      0.0000     17.6079      7.9921     61.2797
      18   1   1      0.2000     20.0862      8.3997     60.0494
      19   1   1      0.0000     20.4739      8.6307     61.3903
      20   1   1      0.0000     21.6748      9.3247     61.3933
      21   1   1      0.0000     23.6610     11.4947     61.2901
      22   1   1      0.0000     23.9099     12.8427     61.3180
      23   1   1      0.0000     23.8230     13.5111     62.5429
      24   1   1      0.0000     23.5924     14.8817     62.6112
      25   1   1      0.0000     23.3731     15.5592     63.7822
      26   1   1      0.0000     22.6757     16.7794     63.7766
      27   1   1      0.0000     22.2085     17.3167     62.5995
      28   1   1      0.0000     21.1518     18.2184     62.5047
      29   1   1      0.0000     20.5328     18.5314     63.6841
      30   1   1      0.0000     19.1670     18.8973     63.6841
      31   1   1      0.0000     18.5400     18.9685     62.4581
      32   1   1      0.0000     17.1577     18.7042     62.5523
      33   1   1      0.0000     16.3872     18.5314     63.6841
      34   1   1      0.0000     15.1843     17.7614     63.7219
      35   1   1      0.0000     14.6570     17.1925     62.5789
      36   1   1      0.0000     13.7526     16.1216     62.4804
      37   1   1      0.0000     13.4861     15.5636     63.7138
      38   1   1      0.0000     13.1413     14.2162     63.7368
      39   1   1      0.0000     13.1423     13.5085     62.5660
      40   1   1      0.0000     13.2987     12.1342     62.5495
      41   1   1      0.0000     13.4559     11.4545     63.6841
      42   1   1      0.0000     14.1629     10.2300     63.6841
      43   1   1      0.0000     14.6670      9.6930     62.5435
      44   1   1      0.0000     15.7552      8.8226     62.5109
      45   1   1      0.0000     16.3780      8.5370     63.7134
      46   1   1      0.0000     17.7325      8.1867     63.7066
      47   1   1      0.0000     18.3820      8.0910     62.4759
      48   1   1      0.0000     19.7754      8.3486     62.5366
      49   1   1      0.0000     20.4647      8.6041     63.7318
      50   1   1      0.0000     21.7000      9.3180     63.7334
      51   1   1      0.0000     22.2652      9.7898     62.5394
      52   1   1      0.0000     23.1782     10.8717     62.4821
      53   1   1      0.0000     23.4021     11.4806     63.7167
      54   1   1      0.0000     23.7528     12.8285     63.7401
      55   1   1      0.0000     23.8026     13.5225     64.9425
      56   1   1      0.0000     23.6372     14.9167     64.9602
      57   1   1      0.0000     23.4641     15.6001     66.1401
      58   1   1      0.0000     22.7571     16.8246     66.1401
      59   1   1      0.0000     22.2491     17.3264     64.9540
      60   1   1      0.0000     21.1682     18.2180     64.9121
      61   1   1      0.0000     20.5328     18.5314     66.1401
      62   1   1      0.0000     19.1670     18.8973     66.1401
      63   1   1      0.0000     18.4600     18.9437     64.9121
      64   1   1      0.0000     17.0581     18.7591     64.9121
      65   1   1      0.0000     16.3872     18.5314     66.1401
      66   1   1      0.0000     15.1627     17.8244     66.1401
      67   1   1      0.0000     14.6301     17.3572     64.9121
      68   1   1      0.0000     13.7693     16.2355     64.9121
      69   1   1      0.0000     13.4559     15.6001     66.1401
      70   1   1      0.0000     13.0900     14.2343     66.1401
      71   1   1      0.0000     13.0436     13.5273     64.9121
      72   1   1      0.0000     13.2282     12.1254     64.9121
      73   1   1      0.0000     13.4559     11.4545     66.1401
      74   1   1      0.0000     14.1629     10.2300     66.1401
      75   1   1      0.0000     14.6301      9.6974     64.9121
      76   1   1      0.0000     15.7518      8.8366     64.9121
      77   1   1      0.0000     16.3872      8.5232     66.1401
      78   1   1      0.0000     17.7530      8.1573     66.1401
      79   1   1      0.0000     18.4366      8.1495     64.9225
      80   1   1      0.0000     19.8332      8.3501     64.9425
      81   1   1      0.0000     20.5104      8.5453     66.1545
      82   1   1      0.0000     21.7424      9.2501     66.1574
      83   1   1      0.0000     22.2357      9.7383     64.9447
      84   1   1      0.0000     23.0879     10.8578     64.9296
      85   1   1      0.0000     23.4125     11.4720     66.1416
      86   1   1      0.0000     23.7773     12.8355     66.1428
      87   1   1      0.0000     23.8481     13.5490     67.3357
      88   1   1      0.0000     23.6718     14.9534     67.3442
      89   1   1      0.0000     23.4346     15.6344     68.5399
      90   1   1      0.0000     22.7405     16.8553     68.5644
      91   1   1      0.0000     22.2899     17.3572     67.3681
      92   1   1      0.0000     21.1682     18.2180     67.3681
      93   1   1      0.0000     20.5328     18.5314     68.5962
      94   1   1      0.0000     19.1670     18.8973     68.5962
      95   1   1      0.0000     18.4600     18.9437     67.3681
      96   1   1      0.0000     17.0581     18.7591     67.3681
      97   1   1      0.0000     16.3872     18.5314     68.5962
      98   1   1      0.0000     15.1627     17.8244     68.5962
      99   1   1      0.0000     14.6301     17.3572     67.3681
     100   1   1      0.0000     13.7693     16.2355     67.3681
     101   1   1      0.0000     13.4559     15.6001     68.5962
     102   1   1      0.0000     13.0900     14.2343     68.5962
     103   1   1      0.0000     13.0436     13.5273     67.3681
     104   1   1      0.0000     13.2282     12.1254     67.3681
     105   1   1      0.0000     13.4559     11.4545     68.5962
     106   1   1      0.0000     14.1629     10.2300     68.5962
     107   1   1      0.0000     14.6301      9.6974     67.3681
     108   1   1      0.0000     15.7518      8.8366     67.3681
     109   1   1      0.0000     16.3872      8.5232     68.5962
     110   1   1      0.0000     17.7530      8.1573     68.5962
     111   1   1      0.0000     18.4600      8.1109     67.3681
     112   1   1      0.0000     19.8619      8.2955     67.3681
     113   1   1      0.0000     20.5328      8.5232     68.5962
     114   1   1      0.0000     21.7372      9.2767     68.5892
     115   1   1      0.0000     22.2899      9.6974     67.3681
     116   1   1      0.0000     23.1281     10.8461     67.3547
     117   1   1      0.0000     23.3937     11.5244     68.5518
     118   1   1      0.0000     23.7605     12.8875     68.5494
     119   1   1      0.0000     23.7963     13.6228     69.7370
     120   1   1      0.0000     23.6406     15.0091     69.7477
     121   1   1      0.0000     23.4448     15.6918     70.9458
     122   1   1      0.0000     22.7460     16.8789     70.9517
     123   1   1      0.0000     22.2827     17.3788     69.7719
     124   1   1      0.0000     21.1682     18.2180     69.8242
     125   1   1      0.0000     20.4935     18.4573     70.9756
     126   1   1      0.0000     19.1311     18.7993     70.9930
     127   1   1      0.0000     18.4600     18.9437     69.8242
     128   1   1      0.0000     17.0581     18.7591     69.8242
     129   1   1      0.0000     16.3872     18.5314     71.0522
     130   1   1      0.0000     15.1627     17.8244     71.0522
     131   1   1      0.0000     14.6301     17.3572     69.8242
     132   1   1      0.0000     13.7693     16.2355     69.8242
     133   1   1      0.0000     13.4559     15.6001     71.0522
     134   1   1      0.0000     13.0900     14.2343     71.0522
     135   1   1      0.0000     13.0436     13.5273     69.8242
     136   1   1      0.0000     13.2282     12.1254     69.8242
     137   1   1      0.0000     13.4559     11.4545     71.0522
     138   1   1      0.0000     14.1459     10.2728     70.9827
     139   1   1      0.0000     14.6301      9.6974     69.8242
     140   1   1      0.0000     15.7500      8.8916     69.7684
     141   1   1      0.0000     16.3565      8.7491     70.9528
     142   1   1      0.0000     17.7146      8.4234     70.9666
     143   1   1      0.0000     18.4372      8.2660     69.7907
     144   1   1      0.0000     19.8361      8.4388     69.8101
     145   1   1      0.0000     20.4282      8.7990     71.0258
     146   1   1      0.0000     21.6325      9.5055     71.0252
     147   1   1      0.0000     22.1960      9.8461     69.7928
     148   1   1      0.0000     23.0394     10.9734     69.7756
     149   1   1      0.0000     23.3191     11.6690     70.9548
     150   1   1      0.0000     23.7202     13.0074     70.9632
     151   1   1      0.0000     23.8119     13.7521     72.1502
     152   1   1      0.0000     23.6896     15.1234     72.1711
     153   1   1      0.0000     23.5730     15.8160     73.3867
     154   1   1      0.0000     22.7867     16.9580     73.3626
     155   1   1      0.0000     22.2901     17.3788     72.1479
     156   1   1      0.0000     21.1214     18.1329     72.1203
     157   1   1      0.0000     20.4484     18.4044     73.2541
     158   1   1      0.0000     19.1489     18.8012     73.3224
     159   1   1      0.0000     18.4364     18.8729     72.1863
     160   1   1      0.0000     17.0581     18.7591     72.2802
     161   1   1      0.0000     16.4244     18.4653     73.5185
     162   1   1      0.0000     15.1765     17.7406     73.5230
     163   1   1      0.0000     14.6301     17.3572     72.2802
     164   1   1      0.0000     13.7693     16.2355     72.2802
     165   1   1      0.0000     13.4528     15.4869     73.4225
     166   1   1      0.0000     13.0665     14.1270     73.4854
     167   1   1      0.0000     13.0436     13.5273     72.2802
     168   1   1      0.0000     13.2219     12.1433     72.2273
     169   1   1      0.0000     13.3044     11.3973     73.3748
     170   1   1      0.0000     13.9809     10.1966     73.3530
     171   1   1      0.0000     14.5484      9.7830     72.1687
     172   1   1      0.0000     15.6843      9.0313     72.1414
     173   1   1      0.0000     16.2163      8.7607     73.3616
     174   1   1      0.0000     17.5743      8.5194     73.3303
     175   1   1      0.0000     18.3488      8.4787     72.1823
     176   1   1      0.0000     19.7345      8.6816     72.2299
     177   1   1      0.0000     20.3404      8.9475     73.4617
     178   1   1      0.0000     21.5734      9.6657     73.4628
     179   1   1      0.0000     22.1007     10.0559     72.2246
     180   1   1      0.0000     22.9768     11.1541     72.1793
     181   1   1      0.0000     23.3282     11.8566     73.3266
     182   1   1      0.0000     23.7830     13.1668     73.3816
     183   1   1      0.0000     23.9750     13.8929     74.5936
     184   1   1      0.0000     23.9255     15.2614     74.6029
     185   1   1      0.0000     22.2111     17.5110     74.5037
     186   1   1      0.0000     21.0582     18.1653     74.3980
     187   1   1      0.0000     20.5457     18.4726     75.5993
     188   1   1      0.0000     18.5800     18.8686     74.4860
     189   1   1      0.0000     17.2197     18.6688     74.6594
     190   1   1      0.0000     14.6157     17.1289     74.6856
     191   1   1      0.0000     13.7860     15.9784     74.6016
     192   1   1      0.0000     12.9099     13.3116     74.6511
     193   1   1      0.0000     12.9763     11.9320     74.5819
     194   1   1      0.0000     14.3070      9.6230     74.5567
     195   1   1      0.0000     15.4748      8.9242     74.5523
     196   1   1      0.0000     18.1750      8.5078     74.5256
     197   1   1      0.0000     19.5598      8.6749     74.6027
     198   1   1      0.2000     20.0191      8.5316     75.9161
     199   1   1      0.0000     22.1797     10.2181     74.6111
     200   1   1      0.0000     23.0244     11.3342     74.5153
     201   1   1      0.0000      4.9700      0.0000     60.0000
     202   1   1      0.0000      6.3900      0.0000     60.0000
     203   1   1      0.0000      4.2600      1.2298     60.0000
     204   1   1      0.0000      7.1000      1.2298     60.0000
     205   1   1      0.0000      9.2300      0.0000     60.0000
     206   1   1      0.0000     10.6500      0.0000     60.0000
     207   1   1      0.0000      8.5200      1.2298     60.0000
     208   1   1      0.0000     11.3600      1.2298     60.0000
     209   1   1      0.0000     13.4900      0.0000     60.0000
     210   1   1      0.0000     14.9100      0.0000     60.0000
     211   1   1      0.0000     12.7800      1.2298     60.0000
     212   1   1      0.0000     15.6200      1.2298     60.0000
     213   1   1      0.0000     17.7500      0.0000     60.0000
     214   1   1      0.0000     19.1700      0.0000     60.0000
     215   1   1      0.0000     17.0400      1.2298     60.0000
     216   1   1      0.0000     19.8800      1.2298     60.0000
     217   1   1      0.0000     22.0100      0.0000     60.0000
     218   1   1      0.0000     23.4300      0.0000     60.0000
     219   1   1      0.0000     21.3000      1.2298     60.0000
     220   1   1      0.0000     24.1400      1.2298     60.0000
     221   1   1      0.0000     26.2700      0.0000     60.0000
     222   1   1      0.0000     27.6900      0.0000     60.0000
     223   1   1      0.0000     25.5600      1.2298     60.0000
     224   1   1      0.0000     28.4000      1.2298     60.0000
     225   1   1      0.0000     30.5300      0.0000     60.0000
     226   1   1      0.0000     31.9500      0.0000     60.0000
     227   1   1      0.0000     29.8200      1.2298     60.0000
     228   1   1      0.0000     32.6600      1.2298     60.0000
     229   1   1      0.0000      4.9700      2.4595     60.0000
     230   1   1      0.0000      6.3900      2.4595     60.0000
     231   1   1      0.0000      4.2600      3.6893     60.0000
     232   1   1      0.0000      7.1000      3.6893     60.0000
     233   1   1      0.0000      9.2300      2.4595     60.0000
     234   1   1      0.0000     10.6500      2.4595     60.0000
     235   1   1      0.0000      8.5200      3.6893     60.0000
     236   1   1      0.0000     11.3600      3.6893     60.0000
     237   1   1      0.0000     13.4900      2.4595     60.0000
     238   1   1      0.0000     14.9100      2.4595     60.0000
     239   1   1      0.0000     12.7800      3.6893     60.0000
     240   1   1      0.0000     15.6200      3.6893     60.0000
     241   1   1      0.0000     17.7500      2.4595     60.0000
     242   1   1      0.0000     19.1700      2.4595     60.0000
     243   1   1      0.0000     17.0400      3.6893     60.0000
     244   1   1      0.0000     19.8800      3.6893     60.0000
     245   1   1      0.0000     22.0100      2.4595     60.0000
     246   1   1      0.0000     23.4300      2.4595     60.0000
     247   1   1      0.0000     21.3000      3.6893     60.0000
     248   1   1      0.0000     24.1400      3.6893     60.0000
     249   1   1      0.0000     26.2700      2.4595     60.0000
     250   1   1      0.0000     27.6900      2.4595     60.0000
     251   1   1      0.0000     25.5600      3.6893     60.0000
     252   1   1      0.0000     28.4000      3.6893     60.0000
     253   1   1      0.0000     30.5300      2.4595     60.0000
     254   1   1      0.0000     31.9500      2.4595     60.0000
     255   1   1      0.0000     29.8200      3.6893     60.0000
     256   1   1      0.0000     32.6600      3.6893     60.0000
     257   1   1      0.0000      4.9700      4.9190     60.0000
     258   1   1      0.0000      6.3900      4.9190     60.0000
     259   1   1      0.0000      4.2600      6.1488     60.0000
     260   1   1      0.0000      7.1000      6.1488     60.0000
     261   1   1      0.0000      9.2300      4.9190     60.0000
     262   1   1      0.0000     10.6500      4.9190     60.0000
     263   1   1      0.0000      8.5200      6.1488     60.0000
     264   1   1      0.0000     11.3600      6.1488     60.0000
     265   1   1      0.0000     13.4900      4.9190     60.0000
     266   1   1      0.0000     14.9100      4.9190     60.0000
     267   1   1      0.0000     12.7589      6.1035     59.9685
     268   1   1      0.0000     15.6430      6.1012     60.0671
     269   1   1      0.0000     17.7621      4.8821     60.0001
     270   1   1      0.0000     19.1729      4.8539     59.9825
     271   1   1      0.0000     17.0857      6.0895     60.0259
     272   1   1      0.0000     19.9677      6.0056     59.9700
     273   1   1      0.0000     22.0584      4.8485     59.9720
     274   1   1      0.0000     23.4587      4.8767     59.9764
     275   1   1      0.0000     21.3711      6.0169     59.9378
     276   1   1      0.0000     24.1944      6.0674     59.9623
     277   1   1      0.0000     26.2700      4.9190     60.0000
     278   1   1      0.0000     27.6900      4.9190     60.0000
     279   1   1      0.0000     25.5893      6.1226     59.9842
     280   1   1      0.0000     28.4000      6.1488     60.0000
     281   1   1      0.0000     30.5300      4.9190     60.0000
     282   1   1      0.0000     31.9500      4.9190     60.0000
     283   1   1      0.0000     29.8200      6.1488     60.0000
     284   1   1      0.0000     32.6600      6.1488     60.0000
     285   1   1      0.0000      4.9700      7.3785     60.0000
     286   1   1      0.0000      6.3900      7.3785     60.0000
     287   1   1      0.0000      4.2600      8.6083     60.0000
     288   1   1      0.0000      7.1000      8.6083     60.0000
     289   1   1      0.0000      9.2300      7.3785     60.0000
     290   1   1      0.0000     10.6500      7.3785     60.0000
     291   1   1      0.0000      8.5200      8.6083     60.0000
     292   1   1      0.0000     11.3134      8.5789     59.9525
     293   1   1      0.0000     13.4472      7.2857     59.9359
     294   1   1      0.0000     14.8357      7.2804     60.0286
     295   1   1      0.0000     12.6800      8.4725     59.8977
     296   1   1      0.2000     15.4201      8.5341     60.0479
     297   1   1      0.2000     18.0584      7.3817     59.9898
     298   1   1      0.0000     19.3589      7.2211     60.0083
     299   1   1      0.0000     22.1091      7.2001     59.8849
     300   1   1      0.0000     23.5073      7.2452     59.9292
     301   1   1      0.0000     24.2053      8.4587     59.9520
     302   1   1      0.0000     26.2946      7.3466     59.9823
     303   1   1      0.0000     27.6900      7.3785     60.0000
     304   1   1      0.0000     25.6017      8.5536     59.9685
     305   1   1      0.0000     28.4000      8.6083     60.0000
     306   1   1      0.0000     30.5300      7.3785     60.0000
     307   1   1      0.0000     31.9500      7.3785     60.0000
     308   1   1      0.0000     29.8200      8.6083     60.0000
     309   1   1      0.0000     32.6600      8.6083     60.0000
     310   1   1      0.0000      4.9700      9.8380     60.0000
     311   1   1      0.0000      6.3900      9.8380     60.0000
     312   1   1      0.0000      4.2600     11.0678     60.0000
     313   1   1      0.0000      7.1000     11.0678     60.0000
     314   1   1      0.0000      9.2300      9.8380     60.0000
     315   1   1      0.0000     10.6500      9.8380     60.0000
     316   1   1      0.0000      8.5200     11.0678     60.0000
     317   1   1      0.0000     11.2880     11.0431     59.9491
     318   1   1      0.0000     13.3258      9.7146     59.8686
     319   1   1      0.2000     14.7042      9.7298     60.1730
     320   1   1      0.0000     12.6523     10.9506     59.8795
     321   1   1      0.0000     23.4485      9.5997     59.9850
     322   1   1      0.2000     23.9576     10.8278     59.9705
     323   1   1      0.0000     26.2888      9.7996     59.9831
     324   1   1      0.0000     27.6900      9.8380     60.0000
     325   1   1      0.0000     25.5784     11.0096     59.9824
     326   1   1      0.0000     28.4000     11.0678     60.0000
     327   1   1      0.0000     30.5300      9.8380     60.0000
     328   1   1      0.0000     31.9500      9.8380     60.0000
     329   1   1      0.0000     29.8200     11.0678     60.0000
     330   1   1      0.0000     32.6600     11.0678     60.0000
     331   1   1      0.0000      4.9700     12.2976     60.0000
     332   1   1      0.0000      6.3900     12.2976     60.0000
     333   1   1      0.0000      4.2600     13.5273     60.0000
     334   1   1      0.0000      7.1000     13.5273     60.0000
     335   1   1      0.0000      9.2300     12.2976     60.0000
     336   1   1      0.0000     10.5982     12.2699     60.0035
     337   1   1      0.0000      8.5202     13.5300     60.0053
     338   1   1      0.0000     11.2708     13.4784     60.0417
     339   1   1      0.2000     12.6574     13.3442     60.0554
     340   1   1      0.2000     24.2852     13.6788     60.0623
     341   1   1      0.0000     26.2774     12.2825     60.0122
     342   1   1      0.0000     27.6900     12.2976     60.0000
     343   1   1      0.0000     25.6509     13.5676     60.0432
     344   1   1      0.0000     28.4000     13.5273     60.0000
     345   1   1      0.0000     30.5300     12.2976     60.0000
     346   1   1      0.0000     31.9500     12.2976     60.0000
     347   1   1      0.0000     29.8200     13.5273     60.0000
     348   1   1      0.0000     32.6600     13.5273     60.0000
     349   1   1      0.0000      4.9700     14.7571     60.0000
     350   1   1      0.0000      6.3900     14.7571     60.0000
     351   1   1      0.0000      4.2600     15.9868     60.0000
     352   1   1      0.0000      7.1000     15.9868     60.0000
     353   1   1      0.0000      9.2243     14.7642     60.0070
     354   1   1      0.0000     10.6400     14.7646     60.0167
     355   1   1      0.0000      8.5153     15.9904     60.0004
     356   1   1      0.0000     11.3421     16.0304     59.9885
     357   1   1      0.2000     12.9816     16.1879     59.9829
     358   1   1      0.0000     24.2525     16.0753     59.9121
     359   1   1      0.0000     26.3203     14.7805     60.0056
     360   1   1      0.0000     27.6900     14.7571     60.0000
     361   1   1      0.0000     25.6260     16.0056     59.9578
     362   1   1      0.0000     28.4000     15.9868     60.0000
     363   1   1      0.0000     30.5300     14.7571     60.0000
     364   1   1      0.0000     31.9500     14.7571     60.0000
     365   1   1      0.0000     29.8200     15.9868     60.0000
     366   1   1      0.0000     32.6600     15.9868     60.0000
     367   1   1      0.0000      4.9700     17.2166     60.0000
     368   1   1      0.0000      6.3900     17.2166     60.0000
     369   1   1      0.0000      4.2600     18.4463     60.0000
     370   1   1      0.0000      7.1000     18.4463     60.0000
     371   1   1      0.0000      9.2178     17.2211     59.9971
     372   1   1      0.0000     10.6263     17.2424     59.9875
     373   1   1      0.0000      8.5200     18.4463     60.0000
     374   1   1      0.0000     11.3252     18.4790     59.9812
     375   1   1      0.0000     13.4853     17.4036     60.0087
     376   1   1      0.0000     12.7274     18.5520     59.9766
     377   1   1      0.0000     23.5519     17.2927     59.9041
     378   1   1      0.2000     21.5253     18.4931     60.0402
     379   1   1      0.0000     24.1840     18.5313     59.9360
     380   1   1      0.0000     26.2700     17.2166     60.0000
     381   1   1      0.0000     27.6900     17.2166     60.0000
     382   1   1      0.0000     25.5600     18.4463     60.0000
     383   1   1      0.0000     28.4000     18.4463     60.0000
     384   1   1      0.0000     30.5300     17.2166     60.0000
     385   1   1      0.0000     31.9500     17.2166     60.0000
     386   1   1      0.0000     29.8200     18.4463     60.0000
     387   1   1      0.0000     32.6600     18.4463     60.0000
     388   1   1      0.0000      4.9700     19.6761     60.0000
     389   1   1      0.0000      6.3900     19.6761     60.0000
     390   1   1      0.0000      4.2600     20.9059     60.0000
     391   1   1      0.0000      7.1000     20.9059     60.0000
     392   1   1      0.0000      9.2300     19.6761     60.0000
     393   1   1      0.0000     10.6353     19.6920     59.9924
     394   1   1      0.0000      8.5200     20.9059     60.0000
     395   1   1      0.0000     11.3600     20.9059     60.0000
     396   1   1      0.0000     13.4332     19.7612     59.9613
     397   1   1      0.0000     14.8323     19.7919     59.9190
     398   1   1      0.0000     12.7534     20.9473     59.9899
     399   1   1      0.0000     15.5801     20.9671     59.9679
     400   1   1      0.0000     17.5844     19.7670     60.0075
     401   1   1      0.2000     18.8824     19.6169     59.9637
     402   1   1      0.0000     16.9737     20.9788     59.9883
     403   1   1      0.0000     19.8562     20.9266     59.9811
     404   1   1      0.0000     22.1094     19.7597     60.0048
     405   1   1      0.0000     23.4895     19.7816     59.9572
     406   1   1      0.0000     21.2998     20.9207     59.9975
     407   1   1      0.0000     24.1664     20.9663     59.9667
     408   1   1      0.0000     26.2700     19.6761     60.0000
     409   1   1      0.0000     27.6900     19.6761     60.0000
     410   1   1      0.0000     25.5600     20.9059     60.0000
     411   1   1      0.0000     28.4000     20.9059     60.0000
     412   1   1      0.0000     30.5300     19.6761     60.0000
     413   1   1      0.0000     31.9500     19.6761     60.0000
     414   1   1      0.0000     29.8200     20.9059     60.0000
     415   1   1      0.0000     32.6600     20.9059     60.0000
     416   1   1      0.0000      4.9700     22.1356     60.0000
     417   1   1      0.0000      6.3900     22.1356     60.0000
     418   1   1      0.0000      4.2600     23.3654     60.0000
     419   1   1      0.0000      7.1000     23.3654     60.0000
     420   1   1      0.0000      9.2300     22.1356     60.0000
     421   1   1      0.0000     10.6500     22.1356     60.0000
     422   1   1      0.0000      8.5200     23.3654     60.0000
     423   1   1      0.0000     11.3600     23.3654     60.0000
     424   1   1      0.0000     13.4900     22.1356     60.0000
     425   1   1      0.0000     14.9100     22.1356     60.0000
     426   1   1      0.0000     12.7800     23.3654     60.0000
     427   1   1      0.0000     15.6200     23.3654     60.0000
     428   1   1      0.0000     17.7500     22.1356     60.0000
     429   1   1      0.0000     19.1700     22.1356     60.0000
     430   1   1      0.0000     17.0400     23.3654     60.0000
     431   1   1      0.0000     19.8800     23.3654     60.0000
     432   1   1      0.0000     22.0100     22.1356     60.0000
     433   1   1      0.0000     23.4305     22.1568     59.9860
     434   1   1      0.0000     21.3000     23.3654     60.0000
     435   1   1      0.0000     24.1400     23.3654     60.0000
     436   1   1      0.0000     26.2700     22.1356     60.0000
     437   1   1      0.0000     27.6900     22.1356     60.0000
     438   1   1      0.0000     25.5600     23.3654     60.0000
     439   1   1      0.0000     28.4000     23.3654     60.0000
     440   1   1      0.0000     30.5300     22.1356     60.0000
     441   1   1      0.0000     31.9500     22.1356     60.0000
     442   1   1      0.0000     29.8200     23.3654     60.0000
     443   1   1      0.0000     32.6600     23.3654     60.0000
     444   1   1      0.0000      4.9700     24.5951     60.0000
     445   1   1      0.0000      6.3900     24.5951     60.0000
     446   1   1      0.0000      4.2600     25.8249     60.0000
     447   1   1      0.0000      7.1000     25.8249     60.0000
     448   1   1      0.0000      9.2300     24.5951     60.0000
     449   1   1      0.0000     10.6500     24.5951     60.0000
     450   1   1      0.0000      8.5200     25.8249     60.0000
     451   1   1      0.0000     11.3600     25.8249     60.0000
     452   1   1      0.0000     13.4900     24.5951     60.0000
     453   1   1      0.0000     14.9100     24.5951     60.0000
     454   1   1      0.0000     12.7800     25.8249     60.0000
     455   1   1      0.0000     15.6200     25.8249     60.0000
     456   1   1      0.0000     17.7500     24.5951     60.0000